
     Program BANDS v.7.4.1 starts on 18Aug2025 at 16:47:29 

     This program is part of the open-source Quantum ESPRESSO suite
     for quantum simulation of materials; please cite
         "P. Giannozzi et al., J. Phys.:Condens. Matter 21 395502 (2009);
         "P. Giannozzi et al., J. Phys.:Condens. Matter 29 465901 (2017);
         "P. Giannozzi et al., J. Chem. Phys. 152 154105 (2020);
          URL http://www.quantum-espresso.org", 
     in publications or presentations arising from this work. More details at
     http://www.quantum-espresso.org/quote

     Parallel version (MPI), running on     1 processors

     MPI processes distributed on     1 nodes
     880469 MiB available memory on the printing compute node when the environment starts


     Reading xml data from directory:

     ../tmp/lco.save/

     IMPORTANT: XC functional enforced from input :
     Exchange-correlation= PBE
                           (   1   4   3   4   0   0   0)
     Any further DFT definition will be discarded
     Please, verify this is what you really want


     G-vector sticks info
     --------------------
     sticks:   dense  smooth     PW     G-vecs:    dense   smooth      PW
     Sum        6687    2223    643               185911    35659    5615

     Using Slab Decomposition


     Check: negative core charge=   -0.000001

     negative rho (up, down):  1.020E-01 0.000E+00
     Reading collected, re-writing distributed wavefunctions
     high-symmetry point:  0.0000 0.0000 0.0000   x coordinate   0.0000
     high-symmetry point:  0.0000 0.9342 0.0000   x coordinate   0.9342
     high-symmetry point:  0.9342 0.9342 0.0000   x coordinate   1.8683
     high-symmetry point:  0.0000 0.0000 0.0000   x coordinate   3.1894
     high-symmetry point:  0.0000 0.0000 0.2701   x coordinate   3.4595

     Plottable bands (eV) written to file lco_bands.dat.gnu
     Bands written to file lco_bands.dat

 **************************************************************************

                    xk=(   0.00000,   0.00000,   0.00000  )

     point group D_4h(4/mmm)
     there are 10 classes
     the character table:

       E     2C4   C2    2C2'  2C2'' i     2S4   s_h   2s_v  2s_d 
A_1g   1.00  1.00  1.00  1.00  1.00  1.00  1.00  1.00  1.00  1.00
A_2g   1.00  1.00  1.00 -1.00 -1.00  1.00  1.00  1.00 -1.00 -1.00
B_1g   1.00 -1.00  1.00  1.00 -1.00  1.00 -1.00  1.00  1.00 -1.00
B_2g   1.00 -1.00  1.00 -1.00  1.00  1.00 -1.00  1.00 -1.00  1.00
E_g    2.00  0.00 -2.00  0.00  0.00  2.00  0.00 -2.00  0.00  0.00
A_1u   1.00  1.00  1.00  1.00  1.00 -1.00 -1.00 -1.00 -1.00 -1.00
A_2u   1.00  1.00  1.00 -1.00 -1.00 -1.00 -1.00 -1.00  1.00  1.00
B_1u   1.00 -1.00  1.00  1.00 -1.00 -1.00  1.00 -1.00 -1.00  1.00
B_2u   1.00 -1.00  1.00 -1.00  1.00 -1.00  1.00 -1.00  1.00 -1.00
E_u    2.00  0.00 -2.00  0.00  0.00 -2.00  0.00  2.00  0.00  0.00

     the symmetry operations in each class and the name of the first element:

     E        1
                                                                 
     2C4      7    8
                                                                 
     C2       2
                                                                 
     2C2'     3    4
                                                                 
     2C2''    5    6
                                                                 
     i        9
                                                                 
     2S4     15   16
                                                                 
     s_h     10
                                                                 
     2s_v    11   12
                                                                 
     2s_d    13   14
                                                                 

     Band symmetry, D_4h(4/mmm) point group:

     e(  1 -  1) =    -99.71431  eV     1   --> A_1g X_1  M_1  
     e(  2 -  3) =    -57.29922  eV     2   --> E_u  X_5' M_5' 
     e(  4 -  4) =    -56.75540  eV     1   --> A_2u X_4' M_4' 
     e(  5 -  5) =    -19.26715  eV     1   --> A_1g X_1  M_1  
     e(  6 -  6) =    -19.11084  eV     1   --> A_2u X_4' M_4' 
     e(  7 -  7) =     -6.91948  eV     1   --> A_1g X_1  M_1  
     e(  8 -  8) =     -5.13015  eV     1   --> A_1g X_1  M_1  
     e(  9 -  9) =     -5.09848  eV     1   --> B_1g X_2  M_2  
     e( 10 - 10) =     -4.66433  eV     1   --> A_2u X_4' M_4' 
     e( 11 - 12) =     -2.67971  eV     2   --> E_g  X_5  M_5  
     e( 13 - 14) =     -2.61456  eV     2   --> E_u  X_5' M_5' 
     e( 15 - 15) =     -2.14422  eV     1   --> A_2u X_4' M_4' 
     e( 16 - 16) =     -1.30457  eV     1   --> A_1g X_1  M_1  
     e( 17 - 18) =      7.37631  eV     2   --> E_u  X_5' M_5' 
     e( 19 - 19) =      7.93656  eV     1   --> A_2u X_4' M_4' 
     e( 20 - 20) =      8.68976  eV     1   --> A_1g X_1  M_1  
     e( 21 - 21) =      8.84000  eV     1   --> B_2u X_3' M_3' 
     e( 22 - 23) =      9.78780  eV     2   --> E_g  X_5  M_5  
     e( 24 - 24) =      9.81547  eV     1   --> B_2g X_3  M_3  
     e( 25 - 26) =     10.02149  eV     2   --> E_u  X_5' M_5' 
     e( 27 - 28) =     10.28126  eV     2   --> E_g  X_5  M_5  
     e( 29 - 30) =     10.74664  eV     2   --> E_u  X_5' M_5' 
     e( 31 - 31) =     10.83753  eV     1   --> B_1g X_2  M_2  
     e( 32 - 32) =     11.20375  eV     1   --> A_2u X_4' M_4' 
     e( 33 - 33) =     11.23539  eV     1   --> A_1g X_1  M_1  
     e( 34 - 34) =     14.30961  eV     1   --> B_2u X_3' M_3' 
     e( 35 - 35) =     14.90657  eV     1   --> B_1g X_2  M_2  
     e( 36 - 36) =     15.41503  eV     1   --> A_1g X_1  M_1  
     e( 37 - 37) =     15.89467  eV     1   --> A_1g X_1  M_1  
     e( 38 - 38) =     15.94641  eV     1   --> B_2g X_3  M_3  
     e( 39 - 40) =     15.96887  eV     2   --> E_g  X_5  M_5  

 **************************************************************************

 **************************************************************************

                    xk=(  -0.00000,   0.01868,   0.00000  )

     point group C_2v (mm2) 
     there are  4 classes
     the character table:

       E     C2    s_v   s_v' 
A_1    1.00  1.00  1.00  1.00
A_2    1.00  1.00 -1.00 -1.00
B_1    1.00 -1.00  1.00 -1.00
B_2    1.00 -1.00 -1.00  1.00

     the symmetry operations in each class and the name of the first element:

     E        1
                                                                 
     C2       2
                                                                 
     s_v      3
                                                                 
     s_v'     4
                                                                 

     Band symmetry, C_2v (mm2)  point group:

     e(  1 -  1) =    -99.71431  eV     1   --> A_1  D_1  S_1  
     e(  2 -  3) =    -57.29922  eV     2   --> A_1  D_1  S_1  
     e(  2 -  3) =    -57.29922  eV     2   --> B_1  D_3  S_3  
     e(  4 -  4) =    -56.75540  eV     1   --> B_2  D_4  S_4  
     e(  5 -  5) =    -19.26705  eV     1   --> A_1  D_1  S_1  
     e(  6 -  6) =    -19.11080  eV     1   --> B_2  D_4  S_4  
     e(  7 -  7) =     -6.91901  eV     1   --> A_1  D_1  S_1  
     e(  8 -  8) =     -5.13077  eV     1   --> A_1  D_1  S_1  
     e(  9 -  9) =     -5.09899  eV     1   --> A_1  D_1  S_1  
     e( 10 - 10) =     -4.66514  eV     1   --> B_2  D_4  S_4  
     e( 11 - 11) =     -2.67972  eV     1   --> B_2  D_4  S_4  
     e( 12 - 12) =     -2.67956  eV     1   --> A_2  D_2  S_2  
     e( 13 - 13) =     -2.61449  eV     1   --> B_1  D_3  S_3  
     e( 14 - 14) =     -2.61368  eV     1   --> A_1  D_1  S_1  
     e( 15 - 15) =     -2.14380  eV     1   --> B_2  D_4  S_4  
     e( 16 - 16) =     -1.30493  eV     1   --> A_1  D_1  S_1  
     e( 17 - 17) =      7.37473  eV     1   --> A_1  D_1  S_1  
     e( 18 - 18) =      7.37652  eV     1   --> B_1  D_3  S_3  
     e( 19 - 19) =      7.93602  eV     1   --> B_2  D_4  S_4  
     e( 20 - 20) =      8.69026  eV     1   --> A_1  D_1  S_1  
     e( 21 - 21) =      8.83950  eV     1   --> B_2  D_4  S_4  
     e( 22 - 22) =      9.78719  eV     1   --> A_2  D_2  S_2  
     e( 23 - 23) =      9.78839  eV     1   --> B_2  D_4  S_4  
     e( 24 - 24) =      9.80722  eV     1   --> B_1  D_3  S_3  
     e( 25 - 25) =     10.01864  eV     1   --> A_1  D_1  S_1  
     e( 26 - 26) =     10.02912  eV     1   --> B_1  D_3  S_3  
     e( 27 - 27) =     10.28137  eV     1   --> A_2  D_2  S_2  
     e( 28 - 28) =     10.28175  eV     1   --> B_2  D_4  S_4  
     e( 29 - 29) =     10.73591  eV     1   --> A_1  D_1  S_1  
     e( 30 - 30) =     10.74602  eV     1   --> B_1  D_3  S_3  
     e( 31 - 31) =     10.84944  eV     1   --> A_1  D_1  S_1  
     e( 32 - 32) =     11.20377  eV     1   --> B_2  D_4  S_4  
     e( 33 - 33) =     11.23631  eV     1   --> A_1  D_1  S_1  
     e( 34 - 34) =     14.31081  eV     1   --> B_2  D_4  S_4  
     e( 35 - 35) =     14.90813  eV     1   --> A_1  D_1  S_1  
     e( 36 - 36) =     15.41533  eV     1   --> A_1  D_1  S_1  
     e( 37 - 37) =     15.89708  eV     1   --> A_1  D_1  S_1  
     e( 38 - 38) =     15.94652  eV     1   --> B_1  D_3  S_3  
     e( 39 - 40) =     15.96892  eV     2   --> A_2  D_2  S_2  
     e( 39 - 40) =     15.96892  eV     2   --> B_2  D_4  S_4  

 **************************************************************************

 **************************************************************************

                    xk=(  -0.00000,   0.03737,   0.00000  )

     Band symmetry, C_2v (mm2)  point group:

     e(  1 -  1) =    -99.71431  eV     1   --> A_1  D_1  S_1  
     e(  2 -  3) =    -57.29922  eV     2   --> A_1  D_1  S_1  
     e(  2 -  3) =    -57.29922  eV     2   --> B_1  D_3  S_3  
     e(  4 -  4) =    -56.75540  eV     1   --> B_2  D_4  S_4  
     e(  5 -  5) =    -19.26678  eV     1   --> A_1  D_1  S_1  
     e(  6 -  6) =    -19.11068  eV     1   --> B_2  D_4  S_4  
     e(  7 -  7) =     -6.91762  eV     1   --> A_1  D_1  S_1  
     e(  8 -  8) =     -5.13285  eV     1   --> A_1  D_1  S_1  
     e(  9 -  9) =     -5.10034  eV     1   --> A_1  D_1  S_1  
     e( 10 - 10) =     -4.66757  eV     1   --> B_2  D_4  S_4  
     e( 11 - 11) =     -2.67975  eV     1   --> B_2  D_4  S_4  
     e( 12 - 12) =     -2.67914  eV     1   --> A_2  D_2  S_2  
     e( 13 - 13) =     -2.61429  eV     1   --> B_1  D_3  S_3  
     e( 14 - 14) =     -2.61107  eV     1   --> A_1  D_1  S_1  
     e( 15 - 15) =     -2.14253  eV     1   --> B_2  D_4  S_4  
     e( 16 - 16) =     -1.30602  eV     1   --> A_1  D_1  S_1  
     e( 17 - 17) =      7.37000  eV     1   --> A_1  D_1  S_1  
     e( 18 - 18) =      7.37713  eV     1   --> B_1  D_3  S_3  
     e( 19 - 19) =      7.93442  eV     1   --> B_2  D_4  S_4  
     e( 20 - 20) =      8.69173  eV     1   --> A_1  D_1  S_1  
     e( 21 - 21) =      8.83800  eV     1   --> B_2  D_4  S_4  
     e( 22 - 23) =      9.78533  eV     2   --> A_2  D_2  S_2  
     e( 22 - 23) =      9.78533  eV     2   --> B_1  D_3  S_3  
     e( 24 - 24) =      9.79010  eV     1   --> B_2  D_4  S_4  
     e( 25 - 25) =     10.01025  eV     1   --> A_1  D_1  S_1  
     e( 26 - 26) =     10.04910  eV     1   --> B_1  D_3  S_3  
     e( 27 - 27) =     10.28165  eV     1   --> A_2  D_2  S_2  
     e( 28 - 28) =     10.28317  eV     1   --> B_2  D_4  S_4  
     e( 29 - 29) =     10.71250  eV     1   --> A_1  D_1  S_1  
     e( 30 - 30) =     10.74416  eV     1   --> B_1  D_3  S_3  
     e( 31 - 31) =     10.87618  eV     1   --> A_1  D_1  S_1  
     e( 32 - 32) =     11.20375  eV     1   --> B_2  D_4  S_4  
     e( 33 - 33) =     11.23912  eV     1   --> A_1  D_1  S_1  
     e( 34 - 34) =     14.31443  eV     1   --> B_2  D_4  S_4  
     e( 35 - 35) =     14.91279  eV     1   --> A_1  D_1  S_1  
     e( 36 - 36) =     15.41620  eV     1   --> A_1  D_1  S_1  
     e( 37 - 37) =     15.90426  eV     1   --> A_1  D_1  S_1  
     e( 38 - 38) =     15.94685  eV     1   --> B_1  D_3  S_3  
     e( 39 - 39) =     15.96907  eV     1   --> A_2  D_2  S_2  
     e( 40 - 40) =     15.96937  eV     1   --> B_2  D_4  S_4  

 **************************************************************************

 **************************************************************************

                    xk=(   0.00000,   0.05605,   0.00000  )

     Band symmetry, C_2v (mm2)  point group:

     e(  1 -  1) =    -99.71431  eV     1   --> A_1  D_1  S_1  
     e(  2 -  3) =    -57.29922  eV     2   --> A_1  D_1  S_1  
     e(  2 -  3) =    -57.29922  eV     2   --> B_1  D_3  S_3  
     e(  4 -  4) =    -56.75540  eV     1   --> B_2  D_4  S_4  
     e(  5 -  5) =    -19.26633  eV     1   --> A_1  D_1  S_1  
     e(  6 -  6) =    -19.11049  eV     1   --> B_2  D_4  S_4  
     e(  7 -  7) =     -6.91529  eV     1   --> A_1  D_1  S_1  
     e(  8 -  8) =     -5.13689  eV     1   --> A_1  D_1  S_1  
     e(  9 -  9) =     -5.10198  eV     1   --> A_1  D_1  S_1  
     e( 10 - 10) =     -4.67161  eV     1   --> B_2  D_4  S_4  
     e( 11 - 11) =     -2.67980  eV     1   --> B_2  D_4  S_4  
     e( 12 - 12) =     -2.67842  eV     1   --> A_2  D_2  S_2  
     e( 13 - 13) =     -2.61396  eV     1   --> B_1  D_3  S_3  
     e( 14 - 14) =     -2.60676  eV     1   --> A_1  D_1  S_1  
     e( 15 - 15) =     -2.14041  eV     1   --> B_2  D_4  S_4  
     e( 16 - 16) =     -1.30783  eV     1   --> A_1  D_1  S_1  
     e( 17 - 17) =      7.36217  eV     1   --> A_1  D_1  S_1  
     e( 18 - 18) =      7.37815  eV     1   --> B_1  D_3  S_3  
     e( 19 - 19) =      7.93174  eV     1   --> B_2  D_4  S_4  
     e( 20 - 20) =      8.69412  eV     1   --> A_1  D_1  S_1  
     e( 21 - 21) =      8.83556  eV     1   --> B_2  D_4  S_4  
     e( 22 - 22) =      9.75503  eV     1   --> B_1  D_3  S_3  
     e( 23 - 23) =      9.78225  eV     1   --> A_2  D_2  S_2  
     e( 24 - 24) =      9.79286  eV     1   --> B_2  D_4  S_4  
     e( 25 - 25) =      9.99675  eV     1   --> A_1  D_1  S_1  
     e( 26 - 26) =     10.07626  eV     1   --> B_1  D_3  S_3  
     e( 27 - 27) =     10.28212  eV     1   --> A_2  D_2  S_2  
     e( 28 - 28) =     10.28557  eV     1   --> B_2  D_4  S_4  
     e( 29 - 29) =     10.68497  eV     1   --> A_1  D_1  S_1  
     e( 30 - 30) =     10.74113  eV     1   --> B_1  D_3  S_3  
     e( 31 - 31) =     10.90853  eV     1   --> A_1  D_1  S_1  
     e( 32 - 32) =     11.20373  eV     1   --> B_2  D_4  S_4  
     e( 33 - 33) =     11.24405  eV     1   --> A_1  D_1  S_1  
     e( 34 - 34) =     14.32043  eV     1   --> B_2  D_4  S_4  
     e( 35 - 35) =     14.92054  eV     1   --> A_1  D_1  S_1  
     e( 36 - 36) =     15.41761  eV     1   --> A_1  D_1  S_1  
     e( 37 - 37) =     15.91610  eV     1   --> A_1  D_1  S_1  
     e( 38 - 38) =     15.94740  eV     1   --> B_1  D_3  S_3  
     e( 39 - 39) =     15.96929  eV     1   --> A_2  D_2  S_2  
     e( 40 - 40) =     15.96994  eV     1   --> B_2  D_4  S_4  

 **************************************************************************

 **************************************************************************

                    xk=(  -0.00000,   0.07473,   0.00000  )

     Band symmetry, C_2v (mm2)  point group:

     e(  1 -  1) =    -99.71431  eV     1   --> A_1  D_1  S_1  
     e(  2 -  3) =    -57.29922  eV     2   --> A_1  D_1  S_1  
     e(  2 -  3) =    -57.29922  eV     2   --> B_1  D_3  S_3  
     e(  4 -  4) =    -56.75540  eV     1   --> B_2  D_4  S_4  
     e(  5 -  5) =    -19.26569  eV     1   --> A_1  D_1  S_1  
     e(  6 -  6) =    -19.11022  eV     1   --> B_2  D_4  S_4  
     e(  7 -  7) =     -6.91204  eV     1   --> A_1  D_1  S_1  
     e(  8 -  8) =     -5.14347  eV     1   --> A_1  D_1  S_1  
     e(  9 -  9) =     -5.10327  eV     1   --> A_1  D_1  S_1  
     e( 10 - 10) =     -4.67722  eV     1   --> B_2  D_4  S_4  
     e( 11 - 11) =     -2.67990  eV     1   --> B_2  D_4  S_4  
     e( 12 - 12) =     -2.67743  eV     1   --> A_2  D_2  S_2  
     e( 13 - 13) =     -2.61350  eV     1   --> B_1  D_3  S_3  
     e( 14 - 14) =     -2.60079  eV     1   --> A_1  D_1  S_1  
     e( 15 - 15) =     -2.13746  eV     1   --> B_2  D_4  S_4  
     e( 16 - 16) =     -1.31034  eV     1   --> A_1  D_1  S_1  
     e( 17 - 17) =      7.35128  eV     1   --> A_1  D_1  S_1  
     e( 18 - 18) =      7.37957  eV     1   --> B_1  D_3  S_3  
     e( 19 - 19) =      7.92800  eV     1   --> B_2  D_4  S_4  
     e( 20 - 20) =      8.69732  eV     1   --> A_1  D_1  S_1  
     e( 21 - 21) =      8.83224  eV     1   --> B_2  D_4  S_4  
     e( 22 - 22) =      9.71980  eV     1   --> B_1  D_3  S_3  
     e( 23 - 23) =      9.77795  eV     1   --> A_2  D_2  S_2  
     e( 24 - 24) =      9.79654  eV     1   --> B_2  D_4  S_4  
     e( 25 - 25) =      9.97886  eV     1   --> A_1  D_1  S_1  
     e( 26 - 26) =     10.10690  eV     1   --> B_1  D_3  S_3  
     e( 27 - 27) =     10.28278  eV     1   --> A_2  D_2  S_2  
     e( 28 - 28) =     10.28899  eV     1   --> B_2  D_4  S_4  
     e( 29 - 29) =     10.65595  eV     1   --> A_1  D_1  S_1  
     e( 30 - 30) =     10.73704  eV     1   --> B_1  D_3  S_3  
     e( 31 - 31) =     10.94290  eV     1   --> A_1  D_1  S_1  
     e( 32 - 32) =     11.20370  eV     1   --> B_2  D_4  S_4  
     e( 33 - 33) =     11.25149  eV     1   --> A_1  D_1  S_1  
     e( 34 - 34) =     14.32879  eV     1   --> B_2  D_4  S_4  
     e( 35 - 35) =     14.93132  eV     1   --> A_1  D_1  S_1  
     e( 36 - 36) =     15.41951  eV     1   --> A_1  D_1  S_1  
     e( 37 - 37) =     15.93237  eV     1   --> A_1  D_1  S_1  
     e( 38 - 38) =     15.94816  eV     1   --> B_1  D_3  S_3  
     e( 39 - 39) =     15.96957  eV     1   --> A_2  D_2  S_2  
     e( 40 - 40) =     15.97073  eV     1   --> B_2  D_4  S_4  

 **************************************************************************

 **************************************************************************

                    xk=(  -0.00000,   0.09342,   0.00000  )

     Band symmetry, C_2v (mm2)  point group:

     e(  1 -  1) =    -99.71431  eV     1   --> A_1  D_1  S_1  
     e(  2 -  3) =    -57.29922  eV     2   --> A_1  D_1  S_1  
     e(  2 -  3) =    -57.29922  eV     2   --> B_1  D_3  S_3  
     e(  4 -  4) =    -56.75540  eV     1   --> B_2  D_4  S_4  
     e(  5 -  5) =    -19.26488  eV     1   --> A_1  D_1  S_1  
     e(  6 -  6) =    -19.10988  eV     1   --> B_2  D_4  S_4  
     e(  7 -  7) =     -6.90786  eV     1   --> A_1  D_1  S_1  
     e(  8 -  8) =     -5.15295  eV     1   --> A_1  D_1  S_1  
     e(  9 -  9) =     -5.10380  eV     1   --> A_1  D_1  S_1  
     e( 10 - 10) =     -4.68438  eV     1   --> B_2  D_4  S_4  
     e( 11 - 11) =     -2.68004  eV     1   --> B_2  D_4  S_4  
     e( 12 - 12) =     -2.67615  eV     1   --> A_2  D_2  S_2  
     e( 13 - 13) =     -2.61291  eV     1   --> B_1  D_3  S_3  
     e( 14 - 14) =     -2.59326  eV     1   --> A_1  D_1  S_1  
     e( 15 - 15) =     -2.13368  eV     1   --> B_2  D_4  S_4  
     e( 16 - 16) =     -1.31354  eV     1   --> A_1  D_1  S_1  
     e( 17 - 17) =      7.33747  eV     1   --> A_1  D_1  S_1  
     e( 18 - 18) =      7.38141  eV     1   --> B_1  D_3  S_3  
     e( 19 - 19) =      7.92319  eV     1   --> B_2  D_4  S_4  
     e( 20 - 20) =      8.70122  eV     1   --> A_1  D_1  S_1  
     e( 21 - 21) =      8.82813  eV     1   --> B_2  D_4  S_4  
     e( 22 - 22) =      9.68174  eV     1   --> B_1  D_3  S_3  
     e( 23 - 23) =      9.77245  eV     1   --> A_2  D_2  S_2  
     e( 24 - 24) =      9.80100  eV     1   --> B_2  D_4  S_4  
     e( 25 - 25) =      9.95740  eV     1   --> A_1  D_1  S_1  
     e( 26 - 26) =     10.13887  eV     1   --> B_1  D_3  S_3  
     e( 27 - 27) =     10.28363  eV     1   --> A_2  D_2  S_2  
     e( 28 - 28) =     10.29350  eV     1   --> B_2  D_4  S_4  
     e( 29 - 29) =     10.62605  eV     1   --> A_1  D_1  S_1  
     e( 30 - 30) =     10.73207  eV     1   --> B_1  D_3  S_3  
     e( 31 - 31) =     10.97746  eV     1   --> A_1  D_1  S_1  
     e( 32 - 32) =     11.20367  eV     1   --> B_2  D_4  S_4  
     e( 33 - 33) =     11.26206  eV     1   --> A_1  D_1  S_1  
     e( 34 - 34) =     14.33949  eV     1   --> B_2  D_4  S_4  
     e( 35 - 35) =     14.94506  eV     1   --> A_1  D_1  S_1  
     e( 36 - 36) =     15.42186  eV     1   --> A_1  D_1  S_1  
     e( 37 - 37) =     15.94914  eV     1   --> B_1  D_3  S_3  
     e( 38 - 38) =     15.95270  eV     1   --> A_1  D_1  S_1  
     e( 39 - 39) =     15.96995  eV     1   --> A_2  D_2  S_2  
     e( 40 - 40) =     15.97176  eV     1   --> B_2  D_4  S_4  

 **************************************************************************

 **************************************************************************

                    xk=(   0.00000,   0.11210,   0.00000  )

     Band symmetry, C_2v (mm2)  point group:

     e(  1 -  1) =    -99.71431  eV     1   --> A_1  D_1  S_1  
     e(  2 -  3) =    -57.29922  eV     2   --> A_1  D_1  S_1  
     e(  2 -  3) =    -57.29922  eV     2   --> B_1  D_3  S_3  
     e(  4 -  4) =    -56.75540  eV     1   --> B_2  D_4  S_4  
     e(  5 -  5) =    -19.26389  eV     1   --> A_1  D_1  S_1  
     e(  6 -  6) =    -19.10946  eV     1   --> B_2  D_4  S_4  
     e(  7 -  7) =     -6.90277  eV     1   --> A_1  D_1  S_1  
     e(  8 -  8) =     -5.16529  eV     1   --> A_1  D_1  S_1  
     e(  9 -  9) =     -5.10351  eV     1   --> A_1  D_1  S_1  
     e( 10 - 10) =     -4.69304  eV     1   --> B_2  D_4  S_4  
     e( 11 - 11) =     -2.68024  eV     1   --> B_2  D_4  S_4  
     e( 12 - 12) =     -2.67460  eV     1   --> A_2  D_2  S_2  
     e( 13 - 13) =     -2.61220  eV     1   --> B_1  D_3  S_3  
     e( 14 - 14) =     -2.58424  eV     1   --> A_1  D_1  S_1  
     e( 15 - 15) =     -2.12909  eV     1   --> B_2  D_4  S_4  
     e( 16 - 16) =     -1.31740  eV     1   --> A_1  D_1  S_1  
     e( 17 - 17) =      7.32083  eV     1   --> A_1  D_1  S_1  
     e( 18 - 18) =      7.38365  eV     1   --> B_1  D_3  S_3  
     e( 19 - 19) =      7.91732  eV     1   --> B_2  D_4  S_4  
     e( 20 - 20) =      8.70565  eV     1   --> A_1  D_1  S_1  
     e( 21 - 21) =      8.82333  eV     1   --> B_2  D_4  S_4  
     e( 22 - 22) =      9.64188  eV     1   --> B_1  D_3  S_3  
     e( 23 - 23) =      9.76579  eV     1   --> A_2  D_2  S_2  
     e( 24 - 24) =      9.80603  eV     1   --> B_2  D_4  S_4  
     e( 25 - 25) =      9.93322  eV     1   --> A_1  D_1  S_1  
     e( 26 - 26) =     10.17094  eV     1   --> B_1  D_3  S_3  
     e( 27 - 27) =     10.28467  eV     1   --> A_2  D_2  S_2  
     e( 28 - 28) =     10.29918  eV     1   --> B_2  D_4  S_4  
     e( 29 - 29) =     10.59527  eV     1   --> A_1  D_1  S_1  
     e( 30 - 30) =     10.72643  eV     1   --> B_1  D_3  S_3  
     e( 31 - 31) =     11.01068  eV     1   --> A_1  D_1  S_1  
     e( 32 - 32) =     11.20368  eV     1   --> B_2  D_4  S_4  
     e( 33 - 33) =     11.27650  eV     1   --> A_1  D_1  S_1  
     e( 34 - 34) =     14.35249  eV     1   --> B_2  D_4  S_4  
     e( 35 - 35) =     14.96166  eV     1   --> A_1  D_1  S_1  
     e( 36 - 36) =     15.42458  eV     1   --> A_1  D_1  S_1  
     e( 37 - 37) =     15.95032  eV     1   --> B_1  D_3  S_3  
     e( 38 - 38) =     15.97044  eV     1   --> A_2  D_2  S_2  
     e( 39 - 39) =     15.97301  eV     1   --> B_2  D_4  S_4  
     e( 40 - 40) =     15.97647  eV     1   --> A_1  D_1  S_1  

 **************************************************************************

 **************************************************************************

                    xk=(  -0.00000,   0.13078,   0.00000  )

     Band symmetry, C_2v (mm2)  point group:

     e(  1 -  1) =    -99.71431  eV     1   --> A_1  D_1  S_1  
     e(  2 -  3) =    -57.29922  eV     2   --> A_1  D_1  S_1  
     e(  2 -  3) =    -57.29922  eV     2   --> B_1  D_3  S_3  
     e(  4 -  4) =    -56.75540  eV     1   --> B_2  D_4  S_4  
     e(  5 -  5) =    -19.26273  eV     1   --> A_1  D_1  S_1  
     e(  6 -  6) =    -19.10897  eV     1   --> B_2  D_4  S_4  
     e(  7 -  7) =     -6.89677  eV     1   --> A_1  D_1  S_1  
     e(  8 -  8) =     -5.18029  eV     1   --> A_1  D_1  S_1  
     e(  9 -  9) =     -5.10252  eV     1   --> A_1  D_1  S_1  
     e( 10 - 10) =     -4.70315  eV     1   --> B_2  D_4  S_4  
     e( 11 - 11) =     -2.68054  eV     1   --> B_2  D_4  S_4  
     e( 12 - 12) =     -2.67278  eV     1   --> A_2  D_2  S_2  
     e( 13 - 13) =     -2.61136  eV     1   --> B_1  D_3  S_3  
     e( 14 - 14) =     -2.57385  eV     1   --> A_1  D_1  S_1  
     e( 15 - 15) =     -2.12369  eV     1   --> B_2  D_4  S_4  
     e( 16 - 16) =     -1.32191  eV     1   --> A_1  D_1  S_1  
     e( 17 - 17) =      7.30146  eV     1   --> A_1  D_1  S_1  
     e( 18 - 18) =      7.38630  eV     1   --> B_1  D_3  S_3  
     e( 19 - 19) =      7.91040  eV     1   --> B_2  D_4  S_4  
     e( 20 - 20) =      8.71044  eV     1   --> A_1  D_1  S_1  
     e( 21 - 21) =      8.81794  eV     1   --> B_2  D_4  S_4  
     e( 22 - 22) =      9.60083  eV     1   --> B_1  D_3  S_3  
     e( 23 - 23) =      9.75799  eV     1   --> A_2  D_2  S_2  
     e( 24 - 24) =      9.81142  eV     1   --> B_2  D_4  S_4  
     e( 25 - 25) =      9.90725  eV     1   --> A_1  D_1  S_1  
     e( 26 - 26) =     10.20224  eV     1   --> B_1  D_3  S_3  
     e( 27 - 27) =     10.28588  eV     1   --> A_2  D_2  S_2  
     e( 28 - 28) =     10.30603  eV     1   --> B_2  D_4  S_4  
     e( 29 - 29) =     10.56348  eV     1   --> A_1  D_1  S_1  
     e( 30 - 30) =     10.72041  eV     1   --> B_1  D_3  S_3  
     e( 31 - 31) =     11.04120  eV     1   --> A_1  D_1  S_1  
     e( 32 - 32) =     11.20372  eV     1   --> B_2  D_4  S_4  
     e( 33 - 33) =     11.29565  eV     1   --> A_1  D_1  S_1  
     e( 34 - 34) =     14.36772  eV     1   --> B_2  D_4  S_4  
     e( 35 - 35) =     14.98102  eV     1   --> A_1  D_1  S_1  
     e( 36 - 36) =     15.42762  eV     1   --> A_1  D_1  S_1  
     e( 37 - 37) =     15.95168  eV     1   --> B_1  D_3  S_3  
     e( 38 - 38) =     15.97099  eV     1   --> A_2  D_2  S_2  
     e( 39 - 39) =     15.97446  eV     1   --> B_2  D_4  S_4  
     e( 40 - 40) =     16.00277  eV     1   --> A_1  D_1  S_1  

 **************************************************************************

 **************************************************************************

                    xk=(  -0.00000,   0.14947,   0.00000  )

     Band symmetry, C_2v (mm2)  point group:

     e(  1 -  1) =    -99.71431  eV     1   --> A_1  D_1  S_1  
     e(  2 -  3) =    -57.29922  eV     2   --> A_1  D_1  S_1  
     e(  2 -  3) =    -57.29922  eV     2   --> B_1  D_3  S_3  
     e(  4 -  4) =    -56.75540  eV     1   --> B_2  D_4  S_4  
     e(  5 -  5) =    -19.26140  eV     1   --> A_1  D_1  S_1  
     e(  6 -  6) =    -19.10842  eV     1   --> B_2  D_4  S_4  
     e(  7 -  7) =     -6.88987  eV     1   --> A_1  D_1  S_1  
     e(  8 -  8) =     -5.19770  eV     1   --> A_1  D_1  S_1  
     e(  9 -  9) =     -5.10096  eV     1   --> A_1  D_1  S_1  
     e( 10 - 10) =     -4.71466  eV     1   --> B_2  D_4  S_4  
     e( 11 - 11) =     -2.68093  eV     1   --> B_2  D_4  S_4  
     e( 12 - 12) =     -2.67069  eV     1   --> A_2  D_2  S_2  
     e( 13 - 13) =     -2.61041  eV     1   --> B_1  D_3  S_3  
     e( 14 - 14) =     -2.56223  eV     1   --> A_1  D_1  S_1  
     e( 15 - 15) =     -2.11750  eV     1   --> B_2  D_4  S_4  
     e( 16 - 16) =     -1.32701  eV     1   --> A_1  D_1  S_1  
     e( 17 - 17) =      7.27950  eV     1   --> A_1  D_1  S_1  
     e( 18 - 18) =      7.38935  eV     1   --> B_1  D_3  S_3  
     e( 19 - 19) =      7.90244  eV     1   --> B_2  D_4  S_4  
     e( 20 - 20) =      8.71538  eV     1   --> A_1  D_1  S_1  
     e( 21 - 21) =      8.81209  eV     1   --> B_2  D_4  S_4  
     e( 22 - 22) =      9.55897  eV     1   --> B_1  D_3  S_3  
     e( 23 - 23) =      9.74909  eV     1   --> A_2  D_2  S_2  
     e( 24 - 24) =      9.81697  eV     1   --> B_2  D_4  S_4  
     e( 25 - 25) =      9.88028  eV     1   --> A_1  D_1  S_1  
     e( 26 - 26) =     10.23210  eV     1   --> B_1  D_3  S_3  
     e( 27 - 27) =     10.28727  eV     1   --> A_2  D_2  S_2  
     e( 28 - 28) =     10.31413  eV     1   --> B_2  D_4  S_4  
     e( 29 - 29) =     10.53052  eV     1   --> A_1  D_1  S_1  
     e( 30 - 30) =     10.71443  eV     1   --> B_1  D_3  S_3  
     e( 31 - 31) =     11.06795  eV     1   --> A_1  D_1  S_1  
     e( 32 - 32) =     11.20380  eV     1   --> B_2  D_4  S_4  
     e( 33 - 33) =     11.32016  eV     1   --> A_1  D_1  S_1  
     e( 34 - 34) =     14.38512  eV     1   --> B_2  D_4  S_4  
     e( 35 - 35) =     15.00300  eV     1   --> A_1  D_1  S_1  
     e( 36 - 36) =     15.43092  eV     1   --> A_1  D_1  S_1  
     e( 37 - 37) =     15.95320  eV     1   --> B_1  D_3  S_3  
     e( 38 - 38) =     15.97162  eV     1   --> A_2  D_2  S_2  
     e( 39 - 39) =     15.97613  eV     1   --> B_2  D_4  S_4  
     e( 40 - 40) =     16.03009  eV     1   --> A_1  D_1  S_1  

 **************************************************************************

 **************************************************************************

                    xk=(   0.00000,   0.16815,   0.00000  )

     Band symmetry, C_2v (mm2)  point group:

     e(  1 -  1) =    -99.71431  eV     1   --> A_1  D_1  S_1  
     e(  2 -  3) =    -57.29922  eV     2   --> A_1  D_1  S_1  
     e(  2 -  3) =    -57.29922  eV     2   --> B_1  D_3  S_3  
     e(  4 -  4) =    -56.75540  eV     1   --> B_2  D_4  S_4  
     e(  5 -  5) =    -19.25991  eV     1   --> A_1  D_1  S_1  
     e(  6 -  6) =    -19.10781  eV     1   --> B_2  D_4  S_4  
     e(  7 -  7) =     -6.88207  eV     1   --> A_1  D_1  S_1  
     e(  8 -  8) =     -5.21731  eV     1   --> A_1  D_1  S_1  
     e(  9 -  9) =     -5.09893  eV     1   --> A_1  D_1  S_1  
     e( 10 - 10) =     -4.72749  eV     1   --> B_2  D_4  S_4  
     e( 11 - 11) =     -2.68145  eV     1   --> B_2  D_4  S_4  
     e( 12 - 12) =     -2.66834  eV     1   --> A_2  D_2  S_2  
     e( 13 - 13) =     -2.60935  eV     1   --> B_1  D_3  S_3  
     e( 14 - 14) =     -2.54949  eV     1   --> A_1  D_1  S_1  
     e( 15 - 15) =     -2.11055  eV     1   --> B_2  D_4  S_4  
     e( 16 - 16) =     -1.33268  eV     1   --> A_1  D_1  S_1  
     e( 17 - 17) =      7.25513  eV     1   --> A_1  D_1  S_1  
     e( 18 - 18) =      7.39281  eV     1   --> B_1  D_3  S_3  
     e( 19 - 19) =      7.89348  eV     1   --> B_2  D_4  S_4  
     e( 20 - 20) =      8.72028  eV     1   --> A_1  D_1  S_1  
     e( 21 - 21) =      8.80589  eV     1   --> B_2  D_4  S_4  
     e( 22 - 22) =      9.51655  eV     1   --> B_1  D_3  S_3  
     e( 23 - 23) =      9.73914  eV     1   --> A_2  D_2  S_2  
     e( 24 - 24) =      9.82248  eV     1   --> B_2  D_4  S_4  
     e( 25 - 25) =      9.85309  eV     1   --> A_1  D_1  S_1  
     e( 26 - 26) =     10.25988  eV     1   --> B_1  D_3  S_3  
     e( 27 - 27) =     10.28884  eV     1   --> A_2  D_2  S_2  
     e( 28 - 28) =     10.32358  eV     1   --> B_2  D_4  S_4  
     e( 29 - 29) =     10.49636  eV     1   --> A_1  D_1  S_1  
     e( 30 - 30) =     10.70899  eV     1   --> B_1  D_3  S_3  
     e( 31 - 31) =     11.09042  eV     1   --> A_1  D_1  S_1  
     e( 32 - 32) =     11.20399  eV     1   --> B_2  D_4  S_4  
     e( 33 - 33) =     11.35017  eV     1   --> A_1  D_1  S_1  
     e( 34 - 34) =     14.40465  eV     1   --> B_2  D_4  S_4  
     e( 35 - 35) =     15.02747  eV     1   --> A_1  D_1  S_1  
     e( 36 - 36) =     15.43445  eV     1   --> A_1  D_1  S_1  
     e( 37 - 37) =     15.95493  eV     1   --> B_1  D_3  S_3  
     e( 38 - 38) =     15.97235  eV     1   --> A_2  D_2  S_2  
     e( 39 - 39) =     15.97806  eV     1   --> B_2  D_4  S_4  
     e( 40 - 40) =     16.05614  eV     1   --> A_1  D_1  S_1  

 **************************************************************************

 **************************************************************************

                    xk=(  -0.00000,   0.18683,   0.00000  )

     Band symmetry, C_2v (mm2)  point group:

     e(  1 -  1) =    -99.71431  eV     1   --> A_1  D_1  S_1  
     e(  2 -  3) =    -57.29922  eV     2   --> A_1  D_1  S_1  
     e(  2 -  3) =    -57.29922  eV     2   --> B_1  D_3  S_3  
     e(  4 -  4) =    -56.75540  eV     1   --> B_2  D_4  S_4  
     e(  5 -  5) =    -19.25825  eV     1   --> A_1  D_1  S_1  
     e(  6 -  6) =    -19.10713  eV     1   --> B_2  D_4  S_4  
     e(  7 -  7) =     -6.87338  eV     1   --> A_1  D_1  S_1  
     e(  8 -  8) =     -5.23891  eV     1   --> A_1  D_1  S_1  
     e(  9 -  9) =     -5.09650  eV     1   --> A_1  D_1  S_1  
     e( 10 - 10) =     -4.74159  eV     1   --> B_2  D_4  S_4  
     e( 11 - 11) =     -2.68212  eV     1   --> B_2  D_4  S_4  
     e( 12 - 12) =     -2.66573  eV     1   --> A_2  D_2  S_2  
     e( 13 - 13) =     -2.60819  eV     1   --> B_1  D_3  S_3  
     e( 14 - 14) =     -2.53578  eV     1   --> A_1  D_1  S_1  
     e( 15 - 15) =     -2.10286  eV     1   --> B_2  D_4  S_4  
     e( 16 - 16) =     -1.33888  eV     1   --> A_1  D_1  S_1  
     e( 17 - 17) =      7.22851  eV     1   --> A_1  D_1  S_1  
     e( 18 - 18) =      7.39666  eV     1   --> B_1  D_3  S_3  
     e( 19 - 19) =      7.88354  eV     1   --> B_2  D_4  S_4  
     e( 20 - 20) =      8.72493  eV     1   --> A_1  D_1  S_1  
     e( 21 - 21) =      8.79943  eV     1   --> B_2  D_4  S_4  
     e( 22 - 22) =      9.47374  eV     1   --> B_1  D_3  S_3  
     e( 23 - 23) =      9.72817  eV     1   --> A_2  D_2  S_2  
     e( 24 - 24) =      9.82625  eV     1   --> A_1  D_1  S_1  
     e( 25 - 25) =      9.82775  eV     1   --> B_2  D_4  S_4  
     e( 26 - 26) =     10.28484  eV     1   --> B_1  D_3  S_3  
     e( 27 - 27) =     10.29060  eV     1   --> A_2  D_2  S_2  
     e( 28 - 28) =     10.33434  eV     1   --> B_2  D_4  S_4  
     e( 29 - 29) =     10.46093  eV     1   --> A_1  D_1  S_1  
     e( 30 - 30) =     10.70472  eV     1   --> B_1  D_3  S_3  
     e( 31 - 31) =     11.10875  eV     1   --> A_1  D_1  S_1  
     e( 32 - 32) =     11.20429  eV     1   --> B_2  D_4  S_4  
     e( 33 - 33) =     11.38524  eV     1   --> A_1  D_1  S_1  
     e( 34 - 34) =     14.42623  eV     1   --> B_2  D_4  S_4  
     e( 35 - 35) =     15.05424  eV     1   --> A_1  D_1  S_1  
     e( 36 - 36) =     15.43818  eV     1   --> A_1  D_1  S_1  
     e( 37 - 37) =     15.95685  eV     1   --> B_1  D_3  S_3  
     e( 38 - 38) =     15.97316  eV     1   --> A_2  D_2  S_2  
     e( 39 - 39) =     15.98020  eV     1   --> B_2  D_4  S_4  
     e( 40 - 40) =     16.07717  eV     1   --> A_1  D_1  S_1  

 **************************************************************************

 **************************************************************************

                    xk=(  -0.00000,   0.20551,   0.00000  )

     Band symmetry, C_2v (mm2)  point group:

     e(  1 -  1) =    -99.71431  eV     1   --> A_1  D_1  S_1  
     e(  2 -  3) =    -57.29922  eV     2   --> A_1  D_1  S_1  
     e(  2 -  3) =    -57.29922  eV     2   --> B_1  D_3  S_3  
     e(  4 -  4) =    -56.75539  eV     1   --> B_2  D_4  S_4  
     e(  5 -  5) =    -19.25644  eV     1   --> A_1  D_1  S_1  
     e(  6 -  6) =    -19.10640  eV     1   --> B_2  D_4  S_4  
     e(  7 -  7) =     -6.86382  eV     1   --> A_1  D_1  S_1  
     e(  8 -  8) =     -5.26232  eV     1   --> A_1  D_1  S_1  
     e(  9 -  9) =     -5.09374  eV     1   --> A_1  D_1  S_1  
     e( 10 - 10) =     -4.75687  eV     1   --> B_2  D_4  S_4  
     e( 11 - 11) =     -2.68295  eV     1   --> B_2  D_4  S_4  
     e( 12 - 12) =     -2.66288  eV     1   --> A_2  D_2  S_2  
     e( 13 - 13) =     -2.60693  eV     1   --> B_1  D_3  S_3  
     e( 14 - 14) =     -2.52127  eV     1   --> A_1  D_1  S_1  
     e( 15 - 15) =     -2.09445  eV     1   --> B_2  D_4  S_4  
     e( 16 - 16) =     -1.34555  eV     1   --> A_1  D_1  S_1  
     e( 17 - 17) =      7.19977  eV     1   --> A_1  D_1  S_1  
     e( 18 - 18) =      7.40092  eV     1   --> B_1  D_3  S_3  
     e( 19 - 19) =      7.87266  eV     1   --> B_2  D_4  S_4  
     e( 20 - 20) =      8.72913  eV     1   --> A_1  D_1  S_1  
     e( 21 - 21) =      8.79280  eV     1   --> B_2  D_4  S_4  
     e( 22 - 22) =      9.43062  eV     1   --> B_1  D_3  S_3  
     e( 23 - 23) =      9.71624  eV     1   --> A_2  D_2  S_2  
     e( 24 - 24) =      9.80034  eV     1   --> A_1  D_1  S_1  
     e( 25 - 25) =      9.83263  eV     1   --> B_2  D_4  S_4  
     e( 26 - 26) =     10.29250  eV     1   --> A_2  D_2  S_2  
     e( 27 - 27) =     10.30624  eV     1   --> B_1  D_3  S_3  
     e( 28 - 28) =     10.34640  eV     1   --> B_2  D_4  S_4  
     e( 29 - 29) =     10.42423  eV     1   --> A_1  D_1  S_1  
     e( 30 - 30) =     10.70231  eV     1   --> B_1  D_3  S_3  
     e( 31 - 31) =     11.12352  eV     1   --> A_1  D_1  S_1  
     e( 32 - 32) =     11.20473  eV     1   --> B_2  D_4  S_4  
     e( 33 - 33) =     11.42437  eV     1   --> A_1  D_1  S_1  
     e( 34 - 34) =     14.44979  eV     1   --> B_2  D_4  S_4  
     e( 35 - 35) =     15.08314  eV     1   --> A_1  D_1  S_1  
     e( 36 - 36) =     15.44206  eV     1   --> A_1  D_1  S_1  
     e( 37 - 37) =     15.95889  eV     1   --> B_1  D_3  S_3  
     e( 38 - 38) =     15.97405  eV     1   --> A_2  D_2  S_2  
     e( 39 - 39) =     15.98255  eV     1   --> B_2  D_4  S_4  
     e( 40 - 40) =     16.08964  eV     1   --> A_1  D_1  S_1  

 **************************************************************************

 **************************************************************************

                    xk=(   0.00000,   0.22420,   0.00000  )

     Band symmetry, C_2v (mm2)  point group:

     e(  1 -  1) =    -99.71431  eV     1   --> A_1  D_1  S_1  
     e(  2 -  3) =    -57.29923  eV     2   --> A_1  D_1  S_1  
     e(  2 -  3) =    -57.29923  eV     2   --> B_1  D_3  S_3  
     e(  4 -  4) =    -56.75539  eV     1   --> B_2  D_4  S_4  
     e(  5 -  5) =    -19.25448  eV     1   --> A_1  D_1  S_1  
     e(  6 -  6) =    -19.10561  eV     1   --> B_2  D_4  S_4  
     e(  7 -  7) =     -6.85340  eV     1   --> A_1  D_1  S_1  
     e(  8 -  8) =     -5.28737  eV     1   --> A_1  D_1  S_1  
     e(  9 -  9) =     -5.09067  eV     1   --> A_1  D_1  S_1  
     e( 10 - 10) =     -4.77325  eV     1   --> B_2  D_4  S_4  
     e( 11 - 11) =     -2.68397  eV     1   --> B_2  D_4  S_4  
     e( 12 - 12) =     -2.65979  eV     1   --> A_2  D_2  S_2  
     e( 13 - 13) =     -2.60558  eV     1   --> B_1  D_3  S_3  
     e( 14 - 14) =     -2.50610  eV     1   --> A_1  D_1  S_1  
     e( 15 - 15) =     -2.08534  eV     1   --> B_2  D_4  S_4  
     e( 16 - 16) =     -1.35264  eV     1   --> A_1  D_1  S_1  
     e( 17 - 17) =      7.16909  eV     1   --> A_1  D_1  S_1  
     e( 18 - 18) =      7.40560  eV     1   --> B_1  D_3  S_3  
     e( 19 - 19) =      7.86091  eV     1   --> B_2  D_4  S_4  
     e( 20 - 20) =      8.73269  eV     1   --> A_1  D_1  S_1  
     e( 21 - 21) =      8.78609  eV     1   --> B_2  D_4  S_4  
     e( 22 - 22) =      9.38735  eV     1   --> B_1  D_3  S_3  
     e( 23 - 23) =      9.70341  eV     1   --> A_2  D_2  S_2  
     e( 24 - 24) =      9.77582  eV     1   --> A_1  D_1  S_1  
     e( 25 - 25) =      9.83698  eV     1   --> B_2  D_4  S_4  
     e( 26 - 26) =     10.29460  eV     1   --> A_2  D_2  S_2  
     e( 27 - 27) =     10.32333  eV     1   --> B_1  D_3  S_3  
     e( 28 - 28) =     10.35969  eV     1   --> B_2  D_4  S_4  
     e( 29 - 29) =     10.38633  eV     1   --> A_1  D_1  S_1  
     e( 30 - 30) =     10.70259  eV     1   --> B_1  D_3  S_3  
     e( 31 - 31) =     11.13555  eV     1   --> A_1  D_1  S_1  
     e( 32 - 32) =     11.20537  eV     1   --> B_2  D_4  S_4  
     e( 33 - 33) =     11.46656  eV     1   --> A_1  D_1  S_1  
     e( 34 - 34) =     14.47524  eV     1   --> B_2  D_4  S_4  
     e( 35 - 35) =     15.11394  eV     1   --> A_1  D_1  S_1  
     e( 36 - 36) =     15.44609  eV     1   --> A_1  D_1  S_1  
     e( 37 - 37) =     15.96114  eV     1   --> B_1  D_3  S_3  
     e( 38 - 38) =     15.97503  eV     1   --> A_2  D_2  S_2  
     e( 39 - 39) =     15.98510  eV     1   --> B_2  D_4  S_4  
     e( 40 - 40) =     16.09557  eV     1   --> A_1  D_1  S_1  

 **************************************************************************

 **************************************************************************

                    xk=(  -0.00000,   0.24288,  -0.00000  )

     Band symmetry, C_2v (mm2)  point group:

     e(  1 -  1) =    -99.71432  eV     1   --> A_1  D_1  S_1  
     e(  2 -  3) =    -57.29923  eV     2   --> A_1  D_1  S_1  
     e(  2 -  3) =    -57.29923  eV     2   --> B_1  D_3  S_3  
     e(  4 -  4) =    -56.75539  eV     1   --> B_2  D_4  S_4  
     e(  5 -  5) =    -19.25237  eV     1   --> A_1  D_1  S_1  
     e(  6 -  6) =    -19.10478  eV     1   --> B_2  D_4  S_4  
     e(  7 -  7) =     -6.84213  eV     1   --> A_1  D_1  S_1  
     e(  8 -  8) =     -5.31390  eV     1   --> A_1  D_1  S_1  
     e(  9 -  9) =     -5.08733  eV     1   --> A_1  D_1  S_1  
     e( 10 - 10) =     -4.79065  eV     1   --> B_2  D_4  S_4  
     e( 11 - 11) =     -2.68520  eV     1   --> B_2  D_4  S_4  
     e( 12 - 12) =     -2.65646  eV     1   --> A_2  D_2  S_2  
     e( 13 - 13) =     -2.60415  eV     1   --> B_1  D_3  S_3  
     e( 14 - 14) =     -2.49044  eV     1   --> A_1  D_1  S_1  
     e( 15 - 15) =     -2.07557  eV     1   --> B_2  D_4  S_4  
     e( 16 - 16) =     -1.36009  eV     1   --> A_1  D_1  S_1  
     e( 17 - 17) =      7.13664  eV     1   --> A_1  D_1  S_1  
     e( 18 - 18) =      7.41067  eV     1   --> B_1  D_3  S_3  
     e( 19 - 19) =      7.84832  eV     1   --> B_2  D_4  S_4  
     e( 20 - 20) =      8.73546  eV     1   --> A_1  D_1  S_1  
     e( 21 - 21) =      8.77934  eV     1   --> B_2  D_4  S_4  
     e( 22 - 22) =      9.34395  eV     1   --> B_1  D_3  S_3  
     e( 23 - 23) =      9.68973  eV     1   --> A_2  D_2  S_2  
     e( 24 - 24) =      9.75303  eV     1   --> A_1  D_1  S_1  
     e( 25 - 25) =      9.84071  eV     1   --> B_2  D_4  S_4  
     e( 26 - 26) =     10.29685  eV     1   --> A_2  D_2  S_2  
     e( 27 - 27) =     10.33538  eV     1   --> B_1  D_3  S_3  
     e( 28 - 28) =     10.34733  eV     1   --> A_1  D_1  S_1  
     e( 29 - 29) =     10.37413  eV     1   --> B_2  D_4  S_4  
     e( 30 - 30) =     10.70624  eV     1   --> B_1  D_3  S_3  
     e( 31 - 31) =     11.14556  eV     1   --> A_1  D_1  S_1  
     e( 32 - 32) =     11.20626  eV     1   --> B_2  D_4  S_4  
     e( 33 - 33) =     11.51083  eV     1   --> A_1  D_1  S_1  
     e( 34 - 34) =     14.50251  eV     1   --> B_2  D_4  S_4  
     e( 35 - 35) =     15.14643  eV     1   --> A_1  D_1  S_1  
     e( 36 - 36) =     15.45024  eV     1   --> A_1  D_1  S_1  
     e( 37 - 37) =     15.96349  eV     1   --> B_1  D_3  S_3  
     e( 38 - 38) =     15.97605  eV     1   --> A_2  D_2  S_2  
     e( 39 - 39) =     15.98785  eV     1   --> B_2  D_4  S_4  
     e( 40 - 40) =     16.09897  eV     1   --> A_1  D_1  S_1  

 **************************************************************************

 **************************************************************************

                    xk=(  -0.00000,   0.26156,   0.00000  )

     Band symmetry, C_2v (mm2)  point group:

     e(  1 -  1) =    -99.71432  eV     1   --> A_1  D_1  S_1  
     e(  2 -  3) =    -57.29923  eV     2   --> A_1  D_1  S_1  
     e(  2 -  3) =    -57.29923  eV     2   --> B_1  D_3  S_3  
     e(  4 -  4) =    -56.75539  eV     1   --> B_2  D_4  S_4  
     e(  5 -  5) =    -19.25013  eV     1   --> A_1  D_1  S_1  
     e(  6 -  6) =    -19.10390  eV     1   --> B_2  D_4  S_4  
     e(  7 -  7) =     -6.83003  eV     1   --> A_1  D_1  S_1  
     e(  8 -  8) =     -5.34175  eV     1   --> A_1  D_1  S_1  
     e(  9 -  9) =     -5.08375  eV     1   --> A_1  D_1  S_1  
     e( 10 - 10) =     -4.80899  eV     1   --> B_2  D_4  S_4  
     e( 11 - 11) =     -2.68666  eV     1   --> B_2  D_4  S_4  
     e( 12 - 12) =     -2.65292  eV     1   --> A_2  D_2  S_2  
     e( 13 - 13) =     -2.60265  eV     1   --> B_1  D_3  S_3  
     e( 14 - 14) =     -2.47445  eV     1   --> A_1  D_1  S_1  
     e( 15 - 15) =     -2.06517  eV     1   --> B_2  D_4  S_4  
     e( 16 - 16) =     -1.36784  eV     1   --> A_1  D_1  S_1  
     e( 17 - 17) =      7.10259  eV     1   --> A_1  D_1  S_1  
     e( 18 - 18) =      7.41615  eV     1   --> B_1  D_3  S_3  
     e( 19 - 19) =      7.83497  eV     1   --> B_2  D_4  S_4  
     e( 20 - 20) =      8.73730  eV     1   --> A_1  D_1  S_1  
     e( 21 - 21) =      8.77262  eV     1   --> B_2  D_4  S_4  
     e( 22 - 22) =      9.30053  eV     1   --> B_1  D_3  S_3  
     e( 23 - 23) =      9.67527  eV     1   --> A_2  D_2  S_2  
     e( 24 - 24) =      9.73227  eV     1   --> A_1  D_1  S_1  
     e( 25 - 25) =      9.84378  eV     1   --> B_2  D_4  S_4  
     e( 26 - 26) =     10.29927  eV     1   --> A_2  D_2  S_2  
     e( 27 - 27) =     10.30737  eV     1   --> A_1  D_1  S_1  
     e( 28 - 28) =     10.34202  eV     1   --> B_1  D_3  S_3  
     e( 29 - 29) =     10.38959  eV     1   --> B_2  D_4  S_4  
     e( 30 - 30) =     10.71373  eV     1   --> B_1  D_3  S_3  
     e( 31 - 31) =     11.15412  eV     1   --> A_1  D_1  S_1  
     e( 32 - 32) =     11.20747  eV     1   --> B_2  D_4  S_4  
     e( 33 - 33) =     11.55641  eV     1   --> A_1  D_1  S_1  
     e( 34 - 34) =     14.53151  eV     1   --> B_2  D_4  S_4  
     e( 35 - 35) =     15.18036  eV     1   --> A_1  D_1  S_1  
     e( 36 - 36) =     15.45452  eV     1   --> A_1  D_1  S_1  
     e( 37 - 37) =     15.96600  eV     1   --> B_1  D_3  S_3  
     e( 38 - 38) =     15.97720  eV     1   --> A_2  D_2  S_2  
     e( 39 - 39) =     15.99083  eV     1   --> B_2  D_4  S_4  
     e( 40 - 40) =     16.10150  eV     1   --> A_1  D_1  S_1  

 **************************************************************************

 **************************************************************************

                    xk=(   0.00000,   0.28025,  -0.00000  )

     Band symmetry, C_2v (mm2)  point group:

     e(  1 -  1) =    -99.71432  eV     1   --> A_1  D_1  S_1  
     e(  2 -  3) =    -57.29923  eV     2   --> A_1  D_1  S_1  
     e(  2 -  3) =    -57.29923  eV     2   --> B_1  D_3  S_3  
     e(  4 -  4) =    -56.75539  eV     1   --> B_2  D_4  S_4  
     e(  5 -  5) =    -19.24775  eV     1   --> A_1  D_1  S_1  
     e(  6 -  6) =    -19.10299  eV     1   --> B_2  D_4  S_4  
     e(  7 -  7) =     -6.81711  eV     1   --> A_1  D_1  S_1  
     e(  8 -  8) =     -5.37075  eV     1   --> A_1  D_1  S_1  
     e(  9 -  9) =     -5.07995  eV     1   --> A_1  D_1  S_1  
     e( 10 - 10) =     -4.82818  eV     1   --> B_2  D_4  S_4  
     e( 11 - 11) =     -2.68836  eV     1   --> B_2  D_4  S_4  
     e( 12 - 12) =     -2.64916  eV     1   --> A_2  D_2  S_2  
     e( 13 - 13) =     -2.60108  eV     1   --> B_1  D_3  S_3  
     e( 14 - 14) =     -2.45830  eV     1   --> A_1  D_1  S_1  
     e( 15 - 15) =     -2.05417  eV     1   --> B_2  D_4  S_4  
     e( 16 - 16) =     -1.37581  eV     1   --> A_1  D_1  S_1  
     e( 17 - 17) =      7.06710  eV     1   --> A_1  D_1  S_1  
     e( 18 - 18) =      7.42202  eV     1   --> B_1  D_3  S_3  
     e( 19 - 19) =      7.82095  eV     1   --> B_2  D_4  S_4  
     e( 20 - 20) =      8.73810  eV     1   --> A_1  D_1  S_1  
     e( 21 - 21) =      8.76596  eV     1   --> B_2  D_4  S_4  
     e( 22 - 22) =      9.25713  eV     1   --> B_1  D_3  S_3  
     e( 23 - 23) =      9.66009  eV     1   --> A_2  D_2  S_2  
     e( 24 - 24) =      9.71372  eV     1   --> A_1  D_1  S_1  
     e( 25 - 25) =      9.84616  eV     1   --> B_2  D_4  S_4  
     e( 26 - 26) =     10.26659  eV     1   --> A_1  D_1  S_1  
     e( 27 - 27) =     10.30183  eV     1   --> A_2  D_2  S_2  
     e( 28 - 28) =     10.34316  eV     1   --> B_1  D_3  S_3  
     e( 29 - 29) =     10.40587  eV     1   --> B_2  D_4  S_4  
     e( 30 - 30) =     10.72514  eV     1   --> B_1  D_3  S_3  
     e( 31 - 31) =     11.16166  eV     1   --> A_1  D_1  S_1  
     e( 32 - 32) =     11.20902  eV     1   --> B_2  D_4  S_4  
     e( 33 - 33) =     11.60272  eV     1   --> A_1  D_1  S_1  
     e( 34 - 34) =     14.56216  eV     1   --> B_2  D_4  S_4  
     e( 35 - 35) =     15.21546  eV     1   --> A_1  D_1  S_1  
     e( 36 - 36) =     15.45891  eV     1   --> A_1  D_1  S_1  
     e( 37 - 37) =     15.96860  eV     1   --> B_1  D_3  S_3  
     e( 38 - 38) =     15.97842  eV     1   --> A_2  D_2  S_2  
     e( 39 - 39) =     15.99400  eV     1   --> B_2  D_4  S_4  
     e( 40 - 40) =     16.10372  eV     1   --> A_1  D_1  S_1  

 **************************************************************************

 **************************************************************************

                    xk=(  -0.00000,   0.29893,   0.00000  )

     Band symmetry, C_2v (mm2)  point group:

     e(  1 -  1) =    -99.71432  eV     1   --> A_1  D_1  S_1  
     e(  2 -  3) =    -57.29923  eV     2   --> A_1  D_1  S_1  
     e(  2 -  3) =    -57.29923  eV     2   --> B_1  D_3  S_3  
     e(  4 -  4) =    -56.75539  eV     1   --> B_2  D_4  S_4  
     e(  5 -  5) =    -19.24525  eV     1   --> A_1  D_1  S_1  
     e(  6 -  6) =    -19.10204  eV     1   --> B_2  D_4  S_4  
     e(  7 -  7) =     -6.80339  eV     1   --> A_1  D_1  S_1  
     e(  8 -  8) =     -5.40078  eV     1   --> A_1  D_1  S_1  
     e(  9 -  9) =     -5.07596  eV     1   --> A_1  D_1  S_1  
     e( 10 - 10) =     -4.84812  eV     1   --> B_2  D_4  S_4  
     e( 11 - 11) =     -2.69033  eV     1   --> B_2  D_4  S_4  
     e( 12 - 12) =     -2.64520  eV     1   --> A_2  D_2  S_2  
     e( 13 - 13) =     -2.59945  eV     1   --> B_1  D_3  S_3  
     e( 14 - 14) =     -2.44214  eV     1   --> A_1  D_1  S_1  
     e( 15 - 15) =     -2.04261  eV     1   --> B_2  D_4  S_4  
     e( 16 - 16) =     -1.38395  eV     1   --> A_1  D_1  S_1  
     e( 17 - 17) =      7.03034  eV     1   --> A_1  D_1  S_1  
     e( 18 - 18) =      7.42829  eV     1   --> B_1  D_3  S_3  
     e( 19 - 19) =      7.80633  eV     1   --> B_2  D_4  S_4  
     e( 20 - 20) =      8.73784  eV     1   --> A_1  D_1  S_1  
     e( 21 - 21) =      8.75937  eV     1   --> B_2  D_4  S_4  
     e( 22 - 22) =      9.21382  eV     1   --> B_1  D_3  S_3  
     e( 23 - 23) =      9.64426  eV     1   --> A_2  D_2  S_2  
     e( 24 - 24) =      9.69747  eV     1   --> A_1  D_1  S_1  
     e( 25 - 25) =      9.84784  eV     1   --> B_2  D_4  S_4  
     e( 26 - 26) =     10.22517  eV     1   --> A_1  D_1  S_1  
     e( 27 - 27) =     10.30457  eV     1   --> A_2  D_2  S_2  
     e( 28 - 28) =     10.33914  eV     1   --> B_1  D_3  S_3  
     e( 29 - 29) =     10.42279  eV     1   --> B_2  D_4  S_4  
     e( 30 - 30) =     10.74023  eV     1   --> B_1  D_3  S_3  
     e( 31 - 31) =     11.16850  eV     1   --> A_1  D_1  S_1  
     e( 32 - 32) =     11.21103  eV     1   --> B_2  D_4  S_4  
     e( 33 - 33) =     11.64929  eV     1   --> A_1  D_1  S_1  
     e( 34 - 34) =     14.59436  eV     1   --> B_2  D_4  S_4  
     e( 35 - 35) =     15.25144  eV     1   --> A_1  D_1  S_1  
     e( 36 - 36) =     15.46341  eV     1   --> A_1  D_1  S_1  
     e( 37 - 37) =     15.97131  eV     1   --> B_1  D_3  S_3  
     e( 38 - 38) =     15.97973  eV     1   --> A_2  D_2  S_2  
     e( 39 - 39) =     15.99736  eV     1   --> B_2  D_4  S_4  
     e( 40 - 40) =     16.10583  eV     1   --> A_1  D_1  S_1  

 **************************************************************************

 **************************************************************************

                    xk=(  -0.00000,   0.31761,  -0.00000  )

     Band symmetry, C_2v (mm2)  point group:

     e(  1 -  1) =    -99.71432  eV     1   --> A_1  D_1  S_1  
     e(  2 -  3) =    -57.29923  eV     2   --> A_1  D_1  S_1  
     e(  2 -  3) =    -57.29923  eV     2   --> B_1  D_3  S_3  
     e(  4 -  4) =    -56.75539  eV     1   --> B_2  D_4  S_4  
     e(  5 -  5) =    -19.24264  eV     1   --> A_1  D_1  S_1  
     e(  6 -  6) =    -19.10107  eV     1   --> B_2  D_4  S_4  
     e(  7 -  7) =     -6.78889  eV     1   --> A_1  D_1  S_1  
     e(  8 -  8) =     -5.43167  eV     1   --> A_1  D_1  S_1  
     e(  9 -  9) =     -5.07179  eV     1   --> A_1  D_1  S_1  
     e( 10 - 10) =     -4.86873  eV     1   --> B_2  D_4  S_4  
     e( 11 - 11) =     -2.69256  eV     1   --> B_2  D_4  S_4  
     e( 12 - 12) =     -2.64105  eV     1   --> A_2  D_2  S_2  
     e( 13 - 13) =     -2.59779  eV     1   --> B_1  D_3  S_3  
     e( 14 - 14) =     -2.42615  eV     1   --> A_1  D_1  S_1  
     e( 15 - 15) =     -2.03051  eV     1   --> B_2  D_4  S_4  
     e( 16 - 16) =     -1.39216  eV     1   --> A_1  D_1  S_1  
     e( 17 - 17) =      6.99245  eV     1   --> A_1  D_1  S_1  
     e( 18 - 18) =      7.43497  eV     1   --> B_1  D_3  S_3  
     e( 19 - 19) =      7.79121  eV     1   --> B_2  D_4  S_4  
     e( 20 - 20) =      8.73647  eV     1   --> A_1  D_1  S_1  
     e( 21 - 21) =      8.75289  eV     1   --> B_2  D_4  S_4  
     e( 22 - 22) =      9.17063  eV     1   --> B_1  D_3  S_3  
     e( 23 - 23) =      9.62785  eV     1   --> A_2  D_2  S_2  
     e( 24 - 24) =      9.68354  eV     1   --> A_1  D_1  S_1  
     e( 25 - 25) =      9.84885  eV     1   --> B_2  D_4  S_4  
     e( 26 - 26) =     10.18324  eV     1   --> A_1  D_1  S_1  
     e( 27 - 27) =     10.30743  eV     1   --> A_2  D_2  S_2  
     e( 28 - 28) =     10.33058  eV     1   --> B_1  D_3  S_3  
     e( 29 - 29) =     10.44007  eV     1   --> B_2  D_4  S_4  
     e( 30 - 30) =     10.75844  eV     1   --> B_1  D_3  S_3  
     e( 31 - 31) =     11.17483  eV     1   --> A_1  D_1  S_1  
     e( 32 - 32) =     11.21352  eV     1   --> B_2  D_4  S_4  
     e( 33 - 33) =     11.69574  eV     1   --> A_1  D_1  S_1  
     e( 34 - 34) =     14.62801  eV     1   --> B_2  D_4  S_4  
     e( 35 - 35) =     15.28800  eV     1   --> A_1  D_1  S_1  
     e( 36 - 36) =     15.46801  eV     1   --> A_1  D_1  S_1  
     e( 37 - 37) =     15.97413  eV     1   --> B_1  D_3  S_3  
     e( 38 - 38) =     15.98109  eV     1   --> A_2  D_2  S_2  
     e( 39 - 39) =     16.00089  eV     1   --> B_2  D_4  S_4  
     e( 40 - 40) =     16.10792  eV     1   --> A_1  D_1  S_1  

 **************************************************************************

 **************************************************************************

                    xk=(   0.00000,   0.33630,   0.00000  )

     Band symmetry, C_2v (mm2)  point group:

     e(  1 -  1) =    -99.71432  eV     1   --> A_1  D_1  S_1  
     e(  2 -  3) =    -57.29923  eV     2   --> A_1  D_1  S_1  
     e(  2 -  3) =    -57.29923  eV     2   --> B_1  D_3  S_3  
     e(  4 -  4) =    -56.75539  eV     1   --> B_2  D_4  S_4  
     e(  5 -  5) =    -19.23991  eV     1   --> A_1  D_1  S_1  
     e(  6 -  6) =    -19.10008  eV     1   --> B_2  D_4  S_4  
     e(  7 -  7) =     -6.77363  eV     1   --> A_1  D_1  S_1  
     e(  8 -  8) =     -5.46329  eV     1   --> A_1  D_1  S_1  
     e(  9 -  9) =     -5.06747  eV     1   --> A_1  D_1  S_1  
     e( 10 - 10) =     -4.88992  eV     1   --> B_2  D_4  S_4  
     e( 11 - 11) =     -2.69508  eV     1   --> B_2  D_4  S_4  
     e( 12 - 12) =     -2.63672  eV     1   --> A_2  D_2  S_2  
     e( 13 - 13) =     -2.59608  eV     1   --> B_1  D_3  S_3  
     e( 14 - 14) =     -2.41047  eV     1   --> A_1  D_1  S_1  
     e( 15 - 15) =     -2.01793  eV     1   --> B_2  D_4  S_4  
     e( 16 - 16) =     -1.40037  eV     1   --> A_1  D_1  S_1  
     e( 17 - 17) =      6.95367  eV     1   --> A_1  D_1  S_1  
     e( 18 - 18) =      7.44205  eV     1   --> B_1  D_3  S_3  
     e( 19 - 19) =      7.77568  eV     1   --> B_2  D_4  S_4  
     e( 20 - 20) =      8.73405  eV     1   --> A_1  D_1  S_1  
     e( 21 - 21) =      8.74652  eV     1   --> B_2  D_4  S_4  
     e( 22 - 22) =      9.12761  eV     1   --> B_1  D_3  S_3  
     e( 23 - 23) =      9.61094  eV     1   --> A_2  D_2  S_2  
     e( 24 - 24) =      9.67187  eV     1   --> A_1  D_1  S_1  
     e( 25 - 25) =      9.84924  eV     1   --> B_2  D_4  S_4  
     e( 26 - 26) =     10.14112  eV     1   --> A_1  D_1  S_1  
     e( 27 - 27) =     10.31045  eV     1   --> A_2  D_2  S_2  
     e( 28 - 28) =     10.31820  eV     1   --> B_1  D_3  S_3  
     e( 29 - 29) =     10.45754  eV     1   --> B_2  D_4  S_4  
     e( 30 - 30) =     10.77913  eV     1   --> B_1  D_3  S_3  
     e( 31 - 31) =     11.18086  eV     1   --> A_1  D_1  S_1  
     e( 32 - 32) =     11.21663  eV     1   --> B_2  D_4  S_4  
     e( 33 - 33) =     11.74183  eV     1   --> A_1  D_1  S_1  
     e( 34 - 34) =     14.66302  eV     1   --> B_2  D_4  S_4  
     e( 35 - 35) =     15.32484  eV     1   --> A_1  D_1  S_1  
     e( 36 - 36) =     15.47273  eV     1   --> A_1  D_1  S_1  
     e( 37 - 37) =     15.97704  eV     1   --> B_1  D_3  S_3  
     e( 38 - 38) =     15.98256  eV     1   --> A_2  D_2  S_2  
     e( 39 - 39) =     16.00462  eV     1   --> B_2  D_4  S_4  
     e( 40 - 40) =     16.11007  eV     1   --> A_1  D_1  S_1  

 **************************************************************************

 **************************************************************************

                    xk=(  -0.00000,   0.35498,  -0.00000  )

     Band symmetry, C_2v (mm2)  point group:

     e(  1 -  1) =    -99.71432  eV     1   --> A_1  D_1  S_1  
     e(  2 -  3) =    -57.29923  eV     2   --> A_1  D_1  S_1  
     e(  2 -  3) =    -57.29923  eV     2   --> B_1  D_3  S_3  
     e(  4 -  4) =    -56.75539  eV     1   --> B_2  D_4  S_4  
     e(  5 -  5) =    -19.23709  eV     1   --> A_1  D_1  S_1  
     e(  6 -  6) =    -19.09907  eV     1   --> B_2  D_4  S_4  
     e(  7 -  7) =     -6.75764  eV     1   --> A_1  D_1  S_1  
     e(  8 -  8) =     -5.49551  eV     1   --> A_1  D_1  S_1  
     e(  9 -  9) =     -5.06301  eV     1   --> A_1  D_1  S_1  
     e( 10 - 10) =     -4.91161  eV     1   --> B_2  D_4  S_4  
     e( 11 - 11) =     -2.69789  eV     1   --> B_2  D_4  S_4  
     e( 12 - 12) =     -2.63223  eV     1   --> A_2  D_2  S_2  
     e( 13 - 13) =     -2.59436  eV     1   --> B_1  D_3  S_3  
     e( 14 - 14) =     -2.39526  eV     1   --> A_1  D_1  S_1  
     e( 15 - 15) =     -2.00489  eV     1   --> B_2  D_4  S_4  
     e( 16 - 16) =     -1.40849  eV     1   --> A_1  D_1  S_1  
     e( 17 - 17) =      6.91411  eV     1   --> A_1  D_1  S_1  
     e( 18 - 18) =      7.44952  eV     1   --> B_1  D_3  S_3  
     e( 19 - 19) =      7.75984  eV     1   --> B_2  D_4  S_4  
     e( 20 - 20) =      8.73061  eV     1   --> A_1  D_1  S_1  
     e( 21 - 21) =      8.74025  eV     1   --> B_2  D_4  S_4  
     e( 22 - 22) =      9.08479  eV     1   --> B_1  D_3  S_3  
     e( 23 - 23) =      9.59357  eV     1   --> A_2  D_2  S_2  
     e( 24 - 24) =      9.66228  eV     1   --> A_1  D_1  S_1  
     e( 25 - 25) =      9.84902  eV     1   --> B_2  D_4  S_4  
     e( 26 - 26) =     10.09896  eV     1   --> A_1  D_1  S_1  
     e( 27 - 27) =     10.30269  eV     1   --> B_1  D_3  S_3  
     e( 28 - 28) =     10.31358  eV     1   --> A_2  D_2  S_2  
     e( 29 - 29) =     10.47487  eV     1   --> B_2  D_4  S_4  
     e( 30 - 30) =     10.80164  eV     1   --> B_1  D_3  S_3  
     e( 31 - 31) =     11.18664  eV     1   --> A_1  D_1  S_1  
     e( 32 - 32) =     11.22040  eV     1   --> B_2  D_4  S_4  
     e( 33 - 33) =     11.78732  eV     1   --> A_1  D_1  S_1  
     e( 34 - 34) =     14.69928  eV     1   --> B_2  D_4  S_4  
     e( 35 - 35) =     15.36162  eV     1   --> A_1  D_1  S_1  
     e( 36 - 36) =     15.47755  eV     1   --> A_1  D_1  S_1  
     e( 37 - 37) =     15.98001  eV     1   --> B_1  D_3  S_3  
     e( 38 - 38) =     15.98405  eV     1   --> A_2  D_2  S_2  
     e( 39 - 39) =     16.00848  eV     1   --> B_2  D_4  S_4  
     e( 40 - 40) =     16.11225  eV     1   --> A_1  D_1  S_1  

 **************************************************************************

 **************************************************************************

                    xk=(  -0.00000,   0.37366,   0.00000  )

     Band symmetry, C_2v (mm2)  point group:

     e(  1 -  1) =    -99.71432  eV     1   --> A_1  D_1  S_1  
     e(  2 -  3) =    -57.29923  eV     2   --> A_1  D_1  S_1  
     e(  2 -  3) =    -57.29923  eV     2   --> B_1  D_3  S_3  
     e(  4 -  4) =    -56.75539  eV     1   --> B_2  D_4  S_4  
     e(  5 -  5) =    -19.23417  eV     1   --> A_1  D_1  S_1  
     e(  6 -  6) =    -19.09806  eV     1   --> B_2  D_4  S_4  
     e(  7 -  7) =     -6.74094  eV     1   --> A_1  D_1  S_1  
     e(  8 -  8) =     -5.52819  eV     1   --> A_1  D_1  S_1  
     e(  9 -  9) =     -5.05844  eV     1   --> A_1  D_1  S_1  
     e( 10 - 10) =     -4.93370  eV     1   --> B_2  D_4  S_4  
     e( 11 - 11) =     -2.70099  eV     1   --> B_2  D_4  S_4  
     e( 12 - 12) =     -2.62758  eV     1   --> A_2  D_2  S_2  
     e( 13 - 13) =     -2.59262  eV     1   --> B_1  D_3  S_3  
     e( 14 - 14) =     -2.38067  eV     1   --> A_1  D_1  S_1  
     e( 15 - 15) =     -1.99143  eV     1   --> B_2  D_4  S_4  
     e( 16 - 16) =     -1.41644  eV     1   --> A_1  D_1  S_1  
     e( 17 - 17) =      6.87396  eV     1   --> A_1  D_1  S_1  
     e( 18 - 18) =      7.45739  eV     1   --> B_1  D_3  S_3  
     e( 19 - 19) =      7.74377  eV     1   --> B_2  D_4  S_4  
     e( 20 - 20) =      8.72629  eV     1   --> A_1  D_1  S_1  
     e( 21 - 21) =      8.73411  eV     1   --> B_2  D_4  S_4  
     e( 22 - 22) =      9.04224  eV     1   --> B_1  D_3  S_3  
     e( 23 - 23) =      9.57587  eV     1   --> A_2  D_2  S_2  
     e( 24 - 24) =      9.65459  eV     1   --> A_1  D_1  S_1  
     e( 25 - 25) =      9.84829  eV     1   --> B_2  D_4  S_4  
     e( 26 - 26) =     10.05703  eV     1   --> A_1  D_1  S_1  
     e( 27 - 27) =     10.28473  eV     1   --> B_1  D_3  S_3  
     e( 28 - 28) =     10.31684  eV     1   --> A_2  D_2  S_2  
     e( 29 - 29) =     10.49183  eV     1   --> B_2  D_4  S_4  
     e( 30 - 30) =     10.82543  eV     1   --> B_1  D_3  S_3  
     e( 31 - 31) =     11.19227  eV     1   --> A_1  D_1  S_1  
     e( 32 - 32) =     11.22496  eV     1   --> B_2  D_4  S_4  
     e( 33 - 33) =     11.83214  eV     1   --> A_1  D_1  S_1  
     e( 34 - 34) =     14.73667  eV     1   --> B_2  D_4  S_4  
     e( 35 - 35) =     15.39799  eV     1   --> A_1  D_1  S_1  
     e( 36 - 36) =     15.48250  eV     1   --> A_1  D_1  S_1  
     e( 37 - 37) =     15.98306  eV     1   --> B_1  D_3  S_3  
     e( 38 - 38) =     15.98566  eV     1   --> A_2  D_2  S_2  
     e( 39 - 39) =     16.01253  eV     1   --> B_2  D_4  S_4  
     e( 40 - 40) =     16.11451  eV     1   --> A_1  D_1  S_1  

 **************************************************************************

 **************************************************************************

                    xk=(   0.00000,   0.39235,  -0.00000  )

     Band symmetry, C_2v (mm2)  point group:

     e(  1 -  1) =    -99.71432  eV     1   --> A_1  D_1  S_1  
     e(  2 -  3) =    -57.29923  eV     2   --> A_1  D_1  S_1  
     e(  2 -  3) =    -57.29923  eV     2   --> B_1  D_3  S_3  
     e(  4 -  4) =    -56.75538  eV     1   --> B_2  D_4  S_4  
     e(  5 -  5) =    -19.23117  eV     1   --> A_1  D_1  S_1  
     e(  6 -  6) =    -19.09704  eV     1   --> B_2  D_4  S_4  
     e(  7 -  7) =     -6.72355  eV     1   --> A_1  D_1  S_1  
     e(  8 -  8) =     -5.56122  eV     1   --> A_1  D_1  S_1  
     e(  9 -  9) =     -5.05377  eV     1   --> A_1  D_1  S_1  
     e( 10 - 10) =     -4.95610  eV     1   --> B_2  D_4  S_4  
     e( 11 - 11) =     -2.70440  eV     1   --> B_2  D_4  S_4  
     e( 12 - 12) =     -2.62279  eV     1   --> A_2  D_2  S_2  
     e( 13 - 13) =     -2.59088  eV     1   --> B_1  D_3  S_3  
     e( 14 - 14) =     -2.36684  eV     1   --> A_1  D_1  S_1  
     e( 15 - 15) =     -1.97760  eV     1   --> B_2  D_4  S_4  
     e( 16 - 16) =     -1.42413  eV     1   --> A_1  D_1  S_1  
     e( 17 - 17) =      6.83339  eV     1   --> A_1  D_1  S_1  
     e( 18 - 18) =      7.46567  eV     1   --> B_1  D_3  S_3  
     e( 19 - 19) =      7.72761  eV     1   --> B_2  D_4  S_4  
     e( 20 - 20) =      8.72121  eV     1   --> A_1  D_1  S_1  
     e( 21 - 21) =      8.72809  eV     1   --> B_2  D_4  S_4  
     e( 22 - 22) =      8.99997  eV     1   --> B_1  D_3  S_3  
     e( 23 - 23) =      9.55789  eV     1   --> A_2  D_2  S_2  
     e( 24 - 24) =      9.64846  eV     1   --> A_1  D_1  S_1  
     e( 25 - 25) =      9.84704  eV     1   --> B_2  D_4  S_4  
     e( 26 - 26) =     10.01561  eV     1   --> A_1  D_1  S_1  
     e( 27 - 27) =     10.26482  eV     1   --> B_1  D_3  S_3  
     e( 28 - 28) =     10.32023  eV     1   --> A_2  D_2  S_2  
     e( 29 - 29) =     10.50813  eV     1   --> B_2  D_4  S_4  
     e( 30 - 30) =     10.85004  eV     1   --> B_1  D_3  S_3  
     e( 31 - 31) =     11.19783  eV     1   --> A_1  D_1  S_1  
     e( 32 - 32) =     11.23038  eV     1   --> B_2  D_4  S_4  
     e( 33 - 33) =     11.87602  eV     1   --> A_1  D_1  S_1  
     e( 34 - 34) =     14.77507  eV     1   --> B_2  D_4  S_4  
     e( 35 - 35) =     15.43355  eV     1   --> A_1  D_1  S_1  
     e( 36 - 36) =     15.48765  eV     1   --> A_1  D_1  S_1  
     e( 37 - 37) =     15.98617  eV     1   --> B_1  D_3  S_3  
     e( 38 - 38) =     15.98734  eV     1   --> A_2  D_2  S_2  
     e( 39 - 39) =     16.01674  eV     1   --> B_2  D_4  S_4  
     e( 40 - 40) =     16.11681  eV     1   --> A_1  D_1  S_1  

 **************************************************************************

 **************************************************************************

                    xk=(  -0.00000,   0.41103,   0.00000  )

     Band symmetry, C_2v (mm2)  point group:

     e(  1 -  1) =    -99.71432  eV     1   --> A_1  D_1  S_1  
     e(  2 -  3) =    -57.29923  eV     2   --> A_1  D_1  S_1  
     e(  2 -  3) =    -57.29923  eV     2   --> B_1  D_3  S_3  
     e(  4 -  4) =    -56.75538  eV     1   --> B_2  D_4  S_4  
     e(  5 -  5) =    -19.22810  eV     1   --> A_1  D_1  S_1  
     e(  6 -  6) =    -19.09603  eV     1   --> B_2  D_4  S_4  
     e(  7 -  7) =     -6.70550  eV     1   --> A_1  D_1  S_1  
     e(  8 -  8) =     -5.59448  eV     1   --> A_1  D_1  S_1  
     e(  9 -  9) =     -5.04903  eV     1   --> A_1  D_1  S_1  
     e( 10 - 10) =     -4.97874  eV     1   --> B_2  D_4  S_4  
     e( 11 - 11) =     -2.70812  eV     1   --> B_2  D_4  S_4  
     e( 12 - 12) =     -2.61787  eV     1   --> A_2  D_2  S_2  
     e( 13 - 13) =     -2.58915  eV     1   --> B_1  D_3  S_3  
     e( 14 - 14) =     -2.35391  eV     1   --> A_1  D_1  S_1  
     e( 15 - 15) =     -1.96342  eV     1   --> B_2  D_4  S_4  
     e( 16 - 16) =     -1.43148  eV     1   --> A_1  D_1  S_1  
     e( 17 - 17) =      6.79257  eV     1   --> A_1  D_1  S_1  
     e( 18 - 18) =      7.47432  eV     1   --> B_1  D_3  S_3  
     e( 19 - 19) =      7.71145  eV     1   --> B_2  D_4  S_4  
     e( 20 - 20) =      8.71551  eV     1   --> A_1  D_1  S_1  
     e( 21 - 21) =      8.72219  eV     1   --> B_2  D_4  S_4  
     e( 22 - 22) =      8.95802  eV     1   --> B_1  D_3  S_3  
     e( 23 - 23) =      9.53970  eV     1   --> A_2  D_2  S_2  
     e( 24 - 24) =      9.64352  eV     1   --> A_1  D_1  S_1  
     e( 25 - 25) =      9.84537  eV     1   --> B_2  D_4  S_4  
     e( 26 - 26) =      9.97501  eV     1   --> A_1  D_1  S_1  
     e( 27 - 27) =     10.24340  eV     1   --> B_1  D_3  S_3  
     e( 28 - 28) =     10.32373  eV     1   --> A_2  D_2  S_2  
     e( 29 - 29) =     10.52353  eV     1   --> B_2  D_4  S_4  
     e( 30 - 30) =     10.87502  eV     1   --> B_1  D_3  S_3  
     e( 31 - 31) =     11.20331  eV     1   --> A_1  D_1  S_1  
     e( 32 - 32) =     11.23675  eV     1   --> B_2  D_4  S_4  
     e( 33 - 33) =     11.91898  eV     1   --> A_1  D_1  S_1  
     e( 34 - 34) =     14.81435  eV     1   --> B_2  D_4  S_4  
     e( 35 - 35) =     15.46757  eV     1   --> A_1  D_1  S_1  
     e( 36 - 36) =     15.49340  eV     1   --> A_1  D_1  S_1  
     e( 37 - 37) =     15.98907  eV     1   --> A_2  D_2  S_2  
     e( 38 - 38) =     15.98934  eV     1   --> B_1  D_3  S_3  
     e( 39 - 39) =     16.02105  eV     1   --> B_2  D_4  S_4  
     e( 40 - 40) =     16.11915  eV     1   --> A_1  D_1  S_1  

 **************************************************************************

 **************************************************************************

                    xk=(  -0.00000,   0.42971,  -0.00000  )

     Band symmetry, C_2v (mm2)  point group:

     e(  1 -  1) =    -99.71432  eV     1   --> A_1  D_1  S_1  
     e(  2 -  3) =    -57.29923  eV     2   --> A_1  D_1  S_1  
     e(  2 -  3) =    -57.29923  eV     2   --> B_1  D_3  S_3  
     e(  4 -  4) =    -56.75538  eV     1   --> B_2  D_4  S_4  
     e(  5 -  5) =    -19.22496  eV     1   --> A_1  D_1  S_1  
     e(  6 -  6) =    -19.09504  eV     1   --> B_2  D_4  S_4  
     e(  7 -  7) =     -6.68683  eV     1   --> A_1  D_1  S_1  
     e(  8 -  8) =     -5.62785  eV     1   --> A_1  D_1  S_1  
     e(  9 -  9) =     -5.04423  eV     1   --> A_1  D_1  S_1  
     e( 10 - 10) =     -5.00152  eV     1   --> B_2  D_4  S_4  
     e( 11 - 11) =     -2.71215  eV     1   --> B_2  D_4  S_4  
     e( 12 - 12) =     -2.61284  eV     1   --> A_2  D_2  S_2  
     e( 13 - 13) =     -2.58744  eV     1   --> B_1  D_3  S_3  
     e( 14 - 14) =     -2.34200  eV     1   --> A_1  D_1  S_1  
     e( 15 - 15) =     -1.94894  eV     1   --> B_2  D_4  S_4  
     e( 16 - 16) =     -1.43841  eV     1   --> A_1  D_1  S_1  
     e( 17 - 17) =      6.75163  eV     1   --> A_1  D_1  S_1  
     e( 18 - 18) =      7.48339  eV     1   --> B_1  D_3  S_3  
     e( 19 - 19) =      7.69537  eV     1   --> B_2  D_4  S_4  
     e( 20 - 20) =      8.70933  eV     1   --> A_1  D_1  S_1  
     e( 21 - 21) =      8.71642  eV     1   --> B_2  D_4  S_4  
     e( 22 - 22) =      8.91644  eV     1   --> B_1  D_3  S_3  
     e( 23 - 23) =      9.52140  eV     1   --> A_2  D_2  S_2  
     e( 24 - 24) =      9.63929  eV     1   --> A_1  D_1  S_1  
     e( 25 - 25) =      9.84329  eV     1   --> B_2  D_4  S_4  
     e( 26 - 26) =      9.93563  eV     1   --> A_1  D_1  S_1  
     e( 27 - 27) =     10.22085  eV     1   --> B_1  D_3  S_3  
     e( 28 - 28) =     10.32735  eV     1   --> A_2  D_2  S_2  
     e( 29 - 29) =     10.53774  eV     1   --> B_2  D_4  S_4  
     e( 30 - 30) =     10.90022  eV     1   --> B_1  D_3  S_3  
     e( 31 - 31) =     11.20880  eV     1   --> A_1  D_1  S_1  
     e( 32 - 32) =     11.24412  eV     1   --> B_2  D_4  S_4  
     e( 33 - 33) =     11.96087  eV     1   --> A_1  D_1  S_1  
     e( 34 - 34) =     14.85437  eV     1   --> B_2  D_4  S_4  
     e( 35 - 35) =     15.49321  eV     1   --> A_1  D_1  S_1  
     e( 36 - 36) =     15.50630  eV     1   --> A_1  D_1  S_1  
     e( 37 - 37) =     15.99087  eV     1   --> A_2  D_2  S_2  
     e( 38 - 38) =     15.99251  eV     1   --> B_1  D_3  S_3  
     e( 39 - 39) =     16.02550  eV     1   --> B_2  D_4  S_4  
     e( 40 - 40) =     16.12150  eV     1   --> A_1  D_1  S_1  

 **************************************************************************

 **************************************************************************

                    xk=(   0.00000,   0.44840,   0.00000  )

     Band symmetry, C_2v (mm2)  point group:

     e(  1 -  1) =    -99.71432  eV     1   --> A_1  D_1  S_1  
     e(  2 -  3) =    -57.29923  eV     2   --> A_1  D_1  S_1  
     e(  2 -  3) =    -57.29923  eV     2   --> B_1  D_3  S_3  
     e(  4 -  4) =    -56.75538  eV     1   --> B_2  D_4  S_4  
     e(  5 -  5) =    -19.22177  eV     1   --> A_1  D_1  S_1  
     e(  6 -  6) =    -19.09406  eV     1   --> B_2  D_4  S_4  
     e(  7 -  7) =     -6.66757  eV     1   --> A_1  D_1  S_1  
     e(  8 -  8) =     -5.66122  eV     1   --> A_1  D_1  S_1  
     e(  9 -  9) =     -5.03938  eV     1   --> A_1  D_1  S_1  
     e( 10 - 10) =     -5.02438  eV     1   --> B_2  D_4  S_4  
     e( 11 - 11) =     -2.71648  eV     1   --> B_2  D_4  S_4  
     e( 12 - 12) =     -2.60771  eV     1   --> A_2  D_2  S_2  
     e( 13 - 13) =     -2.58577  eV     1   --> B_1  D_3  S_3  
     e( 14 - 14) =     -2.33123  eV     1   --> A_1  D_1  S_1  
     e( 15 - 15) =     -1.93419  eV     1   --> B_2  D_4  S_4  
     e( 16 - 16) =     -1.44485  eV     1   --> A_1  D_1  S_1  
     e( 17 - 17) =      6.71077  eV     1   --> A_1  D_1  S_1  
     e( 18 - 18) =      7.49287  eV     1   --> B_1  D_3  S_3  
     e( 19 - 19) =      7.67947  eV     1   --> B_2  D_4  S_4  
     e( 20 - 20) =      8.70285  eV     1   --> A_1  D_1  S_1  
     e( 21 - 21) =      8.71079  eV     1   --> B_2  D_4  S_4  
     e( 22 - 22) =      8.87526  eV     1   --> B_1  D_3  S_3  
     e( 23 - 23) =      9.50307  eV     1   --> A_2  D_2  S_2  
     e( 24 - 24) =      9.63516  eV     1   --> A_1  D_1  S_1  
     e( 25 - 25) =      9.84089  eV     1   --> B_2  D_4  S_4  
     e( 26 - 26) =      9.89801  eV     1   --> A_1  D_1  S_1  
     e( 27 - 27) =     10.19749  eV     1   --> B_1  D_3  S_3  
     e( 28 - 28) =     10.33107  eV     1   --> A_2  D_2  S_2  
     e( 29 - 29) =     10.55064  eV     1   --> B_2  D_4  S_4  
     e( 30 - 30) =     10.92536  eV     1   --> B_1  D_3  S_3  
     e( 31 - 31) =     11.21428  eV     1   --> A_1  D_1  S_1  
     e( 32 - 32) =     11.25255  eV     1   --> B_2  D_4  S_4  
     e( 33 - 33) =     12.00167  eV     1   --> A_1  D_1  S_1  
     e( 34 - 34) =     14.89500  eV     1   --> B_2  D_4  S_4  
     e( 35 - 35) =     15.50102  eV     1   --> A_1  D_1  S_1  
     e( 36 - 36) =     15.53553  eV     1   --> A_1  D_1  S_1  
     e( 37 - 37) =     15.99276  eV     1   --> A_2  D_2  S_2  
     e( 38 - 38) =     15.99577  eV     1   --> B_1  D_3  S_3  
     e( 39 - 39) =     16.03007  eV     1   --> B_2  D_4  S_4  
     e( 40 - 40) =     16.12388  eV     1   -->   ?

 **************************************************************************

 **************************************************************************

                    xk=(   0.00000,   0.46708,   0.00000  )

     Band symmetry, C_2v (mm2)  point group:

     e(  1 -  1) =    -99.71433  eV     1   --> A_1  D_1  S_1  
     e(  2 -  3) =    -57.29924  eV     2   --> A_1  D_1  S_1  
     e(  2 -  3) =    -57.29924  eV     2   --> B_1  D_3  S_3  
     e(  4 -  4) =    -56.75538  eV     1   --> B_2  D_4  S_4  
     e(  5 -  5) =    -19.21853  eV     1   --> A_1  D_1  S_1  
     e(  6 -  6) =    -19.09311  eV     1   --> B_2  D_4  S_4  
     e(  7 -  7) =     -6.64776  eV     1   --> A_1  D_1  S_1  
     e(  8 -  8) =     -5.69448  eV     1   --> A_1  D_1  S_1  
     e(  9 -  9) =     -5.04722  eV     1   --> B_2  D_4  S_4  
     e( 10 - 10) =     -5.03452  eV     1   --> A_1  D_1  S_1  
     e( 11 - 11) =     -2.72111  eV     1   --> B_2  D_4  S_4  
     e( 12 - 12) =     -2.60249  eV     1   --> A_2  D_2  S_2  
     e( 13 - 13) =     -2.58415  eV     1   --> B_1  D_3  S_3  
     e( 14 - 14) =     -2.32168  eV     1   --> A_1  D_1  S_1  
     e( 15 - 15) =     -1.91921  eV     1   --> B_2  D_4  S_4  
     e( 16 - 16) =     -1.45071  eV     1   --> A_1  D_1  S_1  
     e( 17 - 17) =      6.67013  eV     1   --> A_1  D_1  S_1  
     e( 18 - 18) =      7.50276  eV     1   --> B_1  D_3  S_3  
     e( 19 - 19) =      7.66384  eV     1   --> B_2  D_4  S_4  
     e( 20 - 20) =      8.69621  eV     1   --> A_1  D_1  S_1  
     e( 21 - 21) =      8.70530  eV     1   --> B_2  D_4  S_4  
     e( 22 - 22) =      8.83449  eV     1   --> B_1  D_3  S_3  
     e( 23 - 23) =      9.48478  eV     1   --> A_2  D_2  S_2  
     e( 24 - 24) =      9.63031  eV     1   --> A_1  D_1  S_1  
     e( 25 - 25) =      9.83817  eV     1   --> B_2  D_4  S_4  
     e( 26 - 26) =      9.86283  eV     1   --> A_1  D_1  S_1  
     e( 27 - 27) =     10.17353  eV     1   --> B_1  D_3  S_3  
     e( 28 - 28) =     10.33486  eV     1   --> A_2  D_2  S_2  
     e( 29 - 29) =     10.56198  eV     1   --> B_2  D_4  S_4  
     e( 30 - 30) =     10.95024  eV     1   --> B_1  D_3  S_3  
     e( 31 - 31) =     11.21976  eV     1   --> A_1  D_1  S_1  
     e( 32 - 32) =     11.26206  eV     1   --> B_2  D_4  S_4  
     e( 33 - 33) =     12.04133  eV     1   --> A_1  D_1  S_1  
     e( 34 - 34) =     14.93607  eV     1   --> B_2  D_4  S_4  
     e( 35 - 35) =     15.50659  eV     1   --> A_1  D_1  S_1  
     e( 36 - 36) =     15.56525  eV     1   --> A_1  D_1  S_1  
     e( 37 - 37) =     15.99467  eV     1   --> A_2  D_2  S_2  
     e( 38 - 38) =     15.99905  eV     1   --> B_1  D_3  S_3  
     e( 39 - 39) =     16.03471  eV     1   --> B_2  D_4  S_4  
     e( 40 - 40) =     16.12598  eV     1   -->   ?

 **************************************************************************

 **************************************************************************

                    xk=(  -0.00000,   0.48576,  -0.00000  )

     Band symmetry, C_2v (mm2)  point group:

     e(  1 -  1) =    -99.71433  eV     1   --> A_1  D_1  S_1  
     e(  2 -  3) =    -57.29924  eV     2   --> A_1  D_1  S_1  
     e(  2 -  3) =    -57.29924  eV     2   --> B_1  D_3  S_3  
     e(  4 -  4) =    -56.75538  eV     1   --> B_2  D_4  S_4  
     e(  5 -  5) =    -19.21525  eV     1   --> A_1  D_1  S_1  
     e(  6 -  6) =    -19.09219  eV     1   --> B_2  D_4  S_4  
     e(  7 -  7) =     -6.62744  eV     1   --> A_1  D_1  S_1  
     e(  8 -  8) =     -5.72754  eV     1   --> A_1  D_1  S_1  
     e(  9 -  9) =     -5.06998  eV     1   --> B_2  D_4  S_4  
     e( 10 - 10) =     -5.02964  eV     1   --> A_1  D_1  S_1  
     e( 11 - 11) =     -2.72604  eV     1   --> B_2  D_4  S_4  
     e( 12 - 12) =     -2.59720  eV     1   --> A_2  D_2  S_2  
     e( 13 - 13) =     -2.58258  eV     1   --> B_1  D_3  S_3  
     e( 14 - 14) =     -2.31345  eV     1   --> A_1  D_1  S_1  
     e( 15 - 15) =     -1.90403  eV     1   --> B_2  D_4  S_4  
     e( 16 - 16) =     -1.45595  eV     1   --> A_1  D_1  S_1  
     e( 17 - 17) =      6.62987  eV     1   --> A_1  D_1  S_1  
     e( 18 - 18) =      7.51305  eV     1   --> B_1  D_3  S_3  
     e( 19 - 19) =      7.64858  eV     1   --> B_2  D_4  S_4  
     e( 20 - 20) =      8.68955  eV     1   --> A_1  D_1  S_1  
     e( 21 - 21) =      8.69999  eV     1   --> B_2  D_4  S_4  
     e( 22 - 22) =      8.79418  eV     1   --> B_1  D_3  S_3  
     e( 23 - 23) =      9.46660  eV     1   --> A_2  D_2  S_2  
     e( 24 - 24) =      9.62376  eV     1   --> A_1  D_1  S_1  
     e( 25 - 25) =      9.83102  eV     1   --> A_1  D_1  S_1  
     e( 26 - 26) =      9.83522  eV     1   --> B_2  D_4  S_4  
     e( 27 - 27) =     10.14920  eV     1   --> B_1  D_3  S_3  
     e( 28 - 28) =     10.33878  eV     1   --> A_2  D_2  S_2  
     e( 29 - 29) =     10.57164  eV     1   --> B_2  D_4  S_4  
     e( 30 - 30) =     10.97475  eV     1   --> B_1  D_3  S_3  
     e( 31 - 31) =     11.22525  eV     1   --> A_1  D_1  S_1  
     e( 32 - 32) =     11.27268  eV     1   --> B_2  D_4  S_4  
     e( 33 - 33) =     12.07986  eV     1   --> A_1  D_1  S_1  
     e( 34 - 34) =     14.97741  eV     1   --> B_2  D_4  S_4  
     e( 35 - 35) =     15.51193  eV     1   --> A_1  D_1  S_1  
     e( 36 - 36) =     15.59329  eV     1   --> A_1  D_1  S_1  
     e( 37 - 37) =     15.99668  eV     1   --> A_2  D_2  S_2  
     e( 38 - 38) =     16.00237  eV     1   --> B_1  D_3  S_3  
     e( 39 - 39) =     16.03946  eV     1   --> B_2  D_4  S_4  
     e( 40 - 40) =     16.12040  eV     1   -->   ?

 **************************************************************************

 **************************************************************************

[...]
     e(  8 -  8) =     -5.23171  eV     1   --> A_1  G_1 D_1   
     e(  9 -  9) =     -5.09851  eV     1   --> B_1  G_3 D_2   
     e( 10 - 10) =     -4.55694  eV     1   --> A_1  G_1 D_1   
     e( 11 - 12) =     -2.73609  eV     2   --> E    G_5 D_5   
     e( 13 - 14) =     -2.55539  eV     2   --> E    G_5 D_5   
     e( 15 - 15) =     -2.09739  eV     1   --> A_1  G_1 D_1   
     e( 16 - 16) =     -1.42332  eV     1   --> A_1  G_1 D_1   
     e( 17 - 18) =      7.36122  eV     2   --> E    G_5 D_5   
     e( 19 - 19) =      8.09654  eV     1   --> A_1  G_1 D_1   
     e( 20 - 20) =      8.85563  eV     1   --> B_1  G_3 D_2   
     e( 21 - 21) =      8.85901  eV     1   --> A_1  G_1 D_1   
     e( 22 - 23) =      9.65146  eV     2   --> E    G_5 D_5   
     e( 24 - 24) =      9.81554  eV     1   --> B_2  G_4 D_2'  
     e( 25 - 26) =     10.01266  eV     2   --> E    G_5 D_5   
     e( 27 - 28) =     10.43181  eV     2   --> E    G_5 D_5   
     e( 29 - 29) =     10.59963  eV     1   --> A_1  G_1 D_1   
     e( 30 - 31) =     10.77289  eV     2   --> E    G_5 D_5   
     e( 32 - 32) =     10.83718  eV     1   --> B_1  G_3 D_2   
     e( 33 - 33) =     11.55556  eV     1   --> A_1  G_1 D_1   
     e( 34 - 34) =     13.94675  eV     1   --> B_1  G_3 D_2   
     e( 35 - 35) =     15.30388  eV     1   --> B_1  G_3 D_2   
     e( 36 - 36) =     15.32967  eV     1   --> A_1  G_1 D_1   
     e( 37 - 37) =     15.84701  eV     1   --> A_1  G_1 D_1   
     e( 38 - 38) =     15.95422  eV     1   --> B_2  G_4 D_2'  
     e( 39 - 40) =     15.97507  eV     2   --> E    G_5 D_5   

 **************************************************************************

 **************************************************************************

                    xk=(  -0.00000,  -0.00000,   0.23228  )

     Band symmetry, C_4v (4mm)  point group:

     e(  1 -  1) =    -99.71431  eV     1   --> A_1  G_1 D_1   
     e(  2 -  3) =    -57.29922  eV     2   --> E    G_5 D_5   
     e(  4 -  4) =    -56.75540  eV     1   --> A_1  G_1 D_1   
     e(  5 -  5) =    -19.25113  eV     1   --> A_1  G_1 D_1   
     e(  6 -  6) =    -19.12772  eV     1   --> A_1  G_1 D_1   
     e(  7 -  7) =     -6.89475  eV     1   --> A_1  G_1 D_1   
     e(  8 -  8) =     -5.23517  eV     1   --> A_1  G_1 D_1   
     e(  9 -  9) =     -5.09852  eV     1   --> B_1  G_3 D_2   
     e( 10 - 10) =     -4.55329  eV     1   --> A_1  G_1 D_1   
     e( 11 - 12) =     -2.73762  eV     2   --> E    G_5 D_5   
     e( 13 - 14) =     -2.55375  eV     2   --> E    G_5 D_5   
     e( 15 - 15) =     -2.09490  eV     1   --> A_1  G_1 D_1   
     e( 16 - 16) =     -1.42870  eV     1   --> A_1  G_1 D_1   
     e( 17 - 18) =      7.36061  eV     2   --> E    G_5 D_5   
     e( 19 - 19) =      8.10357  eV     1   --> A_1  G_1 D_1   
     e( 20 - 20) =      8.85629  eV     1   --> B_1  G_3 D_2   
     e( 21 - 21) =      8.86643  eV     1   --> A_1  G_1 D_1   
     e( 22 - 23) =      9.64734  eV     2   --> E    G_5 D_5   
     e( 24 - 24) =      9.81555  eV     1   --> B_2  G_4 D_2'  
     e( 25 - 26) =     10.01166  eV     2   --> E    G_5 D_5   
     e( 27 - 28) =     10.43730  eV     2   --> E    G_5 D_5   
     e( 29 - 29) =     10.58293  eV     1   --> A_1  G_1 D_1   
     e( 30 - 31) =     10.77384  eV     2   --> E    G_5 D_5   
     e( 32 - 32) =     10.83716  eV     1   --> B_1  G_3 D_2   
     e( 33 - 33) =     11.55986  eV     1   --> A_1  G_1 D_1   
     e( 34 - 34) =     13.93633  eV     1   --> B_1  G_3 D_2   
     e( 35 - 35) =     15.31577  eV     1   --> B_1  G_3 D_2   
     e( 36 - 36) =     15.32485  eV     1   --> A_1  G_1 D_1   
     e( 37 - 37) =     15.84500  eV     1   --> A_1  G_1 D_1   
     e( 38 - 38) =     15.95459  eV     1   --> B_2  G_4 D_2'  
     e( 39 - 40) =     15.97533  eV     2   --> E    G_5 D_5   

 **************************************************************************

 **************************************************************************

                    xk=(   0.00000,   0.00000,   0.23768  )

     Band symmetry, C_4v (4mm)  point group:

     e(  1 -  1) =    -99.71431  eV     1   --> A_1  G_1 D_1   
     e(  2 -  3) =    -57.29922  eV     2   --> E    G_5 D_5   
     e(  4 -  4) =    -56.75540  eV     1   --> A_1  G_1 D_1   
     e(  5 -  5) =    -19.25041  eV     1   --> A_1  G_1 D_1   
     e(  6 -  6) =    -19.12847  eV     1   --> A_1  G_1 D_1   
     e(  7 -  7) =     -6.89376  eV     1   --> A_1  G_1 D_1   
     e(  8 -  8) =     -5.23862  eV     1   --> A_1  G_1 D_1   
     e(  9 -  9) =     -5.09852  eV     1   --> B_1  G_3 D_2   
     e( 10 - 10) =     -4.54966  eV     1   --> A_1  G_1 D_1   
     e( 11 - 12) =     -2.73913  eV     2   --> E    G_5 D_5   
     e( 13 - 14) =     -2.55212  eV     2   --> E    G_5 D_5   
     e( 15 - 15) =     -2.09234  eV     1   --> A_1  G_1 D_1   
     e( 16 - 16) =     -1.43416  eV     1   --> A_1  G_1 D_1   
     e( 17 - 18) =      7.35999  eV     2   --> E    G_5 D_5   
     e( 19 - 19) =      8.11069  eV     1   --> A_1  G_1 D_1   
     e( 20 - 20) =      8.85694  eV     1   --> B_1  G_3 D_2   
     e( 21 - 21) =      8.87396  eV     1   --> A_1  G_1 D_1   
     e( 22 - 23) =      9.64326  eV     2   --> E    G_5 D_5   
     e( 24 - 24) =      9.81555  eV     1   --> B_2  G_4 D_2'  
     e( 25 - 26) =     10.01063  eV     2   --> E    G_5 D_5   
     e( 27 - 28) =     10.44278  eV     2   --> E    G_5 D_5   
     e( 29 - 29) =     10.56620  eV     1   --> A_1  G_1 D_1   
     e( 30 - 31) =     10.77477  eV     2   --> E    G_5 D_5   
     e( 32 - 32) =     10.83714  eV     1   --> B_1  G_3 D_2   
     e( 33 - 33) =     11.56401  eV     1   --> A_1  G_1 D_1   
     e( 34 - 34) =     13.92600  eV     1   --> B_1  G_3 D_2   
     e( 35 - 35) =     15.31988  eV     1   --> A_1  G_1 D_1   
     e( 36 - 36) =     15.32759  eV     1   --> B_1  G_3 D_2   
     e( 37 - 37) =     15.84300  eV     1   --> A_1  G_1 D_1   
     e( 38 - 38) =     15.95494  eV     1   --> B_2  G_4 D_2'  
     e( 39 - 40) =     15.97561  eV     2   --> E    G_5 D_5   

 **************************************************************************

 **************************************************************************

                    xk=(   0.00000,   0.00000,   0.24308  )

     Band symmetry, C_4v (4mm)  point group:

     e(  1 -  1) =    -99.71431  eV     1   --> A_1  G_1 D_1   
     e(  2 -  3) =    -57.29922  eV     2   --> E    G_5 D_5   
     e(  4 -  4) =    -56.75540  eV     1   --> A_1  G_1 D_1   
     e(  5 -  5) =    -19.24967  eV     1   --> A_1  G_1 D_1   
     e(  6 -  6) =    -19.12924  eV     1   --> A_1  G_1 D_1   
     e(  7 -  7) =     -6.89276  eV     1   --> A_1  G_1 D_1   
     e(  8 -  8) =     -5.24205  eV     1   --> A_1  G_1 D_1   
     e(  9 -  9) =     -5.09852  eV     1   --> B_1  G_3 D_2   
     e( 10 - 10) =     -4.54604  eV     1   --> A_1  G_1 D_1   
     e( 11 - 12) =     -2.74062  eV     2   --> E    G_5 D_5   
     e( 13 - 14) =     -2.55051  eV     2   --> E    G_5 D_5   
     e( 15 - 15) =     -2.08970  eV     1   --> A_1  G_1 D_1   
     e( 16 - 16) =     -1.43972  eV     1   --> A_1  G_1 D_1   
     e( 17 - 18) =      7.35936  eV     2   --> E    G_5 D_5   
     e( 19 - 19) =      8.11791  eV     1   --> A_1  G_1 D_1   
     e( 20 - 20) =      8.85759  eV     1   --> B_1  G_3 D_2   
     e( 21 - 21) =      8.88158  eV     1   --> A_1  G_1 D_1   
     e( 22 - 23) =      9.63921  eV     2   --> E    G_5 D_5   
     e( 24 - 24) =      9.81556  eV     1   --> B_2  G_4 D_2'  
     e( 25 - 26) =     10.00958  eV     2   --> E    G_5 D_5   
     e( 27 - 28) =     10.44825  eV     2   --> E    G_5 D_5   
     e( 29 - 29) =     10.54944  eV     1   --> A_1  G_1 D_1   
     e( 30 - 31) =     10.77570  eV     2   --> E    G_5 D_5   
     e( 32 - 32) =     10.83713  eV     1   --> B_1  G_3 D_2   
     e( 33 - 33) =     11.56801  eV     1   --> A_1  G_1 D_1   
     e( 34 - 34) =     13.91578  eV     1   --> B_1  G_3 D_2   
     e( 35 - 35) =     15.31478  eV     1   --> A_1  G_1 D_1   
     e( 36 - 36) =     15.33932  eV     1   --> B_1  G_3 D_2   
     e( 37 - 37) =     15.84101  eV     1   --> A_1  G_1 D_1   
     e( 38 - 38) =     15.95529  eV     1   --> B_2  G_4 D_2'  
     e( 39 - 40) =     15.97588  eV     2   --> E    G_5 D_5   

 **************************************************************************

 **************************************************************************

                    xk=(   0.00000,   0.00000,   0.24848  )

     Band symmetry, C_4v (4mm)  point group:

     e(  1 -  1) =    -99.71431  eV     1   --> A_1  G_1 D_1   
     e(  2 -  3) =    -57.29922  eV     2   --> E    G_5 D_5   
     e(  4 -  4) =    -56.75540  eV     1   --> A_1  G_1 D_1   
     e(  5 -  5) =    -19.24892  eV     1   --> A_1  G_1 D_1   
     e(  6 -  6) =    -19.13002  eV     1   --> A_1  G_1 D_1   
     e(  7 -  7) =     -6.89176  eV     1   --> A_1  G_1 D_1   
     e(  8 -  8) =     -5.24546  eV     1   --> A_1  G_1 D_1   
     e(  9 -  9) =     -5.09852  eV     1   --> B_1  G_3 D_2   
     e( 10 - 10) =     -4.54244  eV     1   --> A_1  G_1 D_1   
     e( 11 - 12) =     -2.74210  eV     2   --> E    G_5 D_5   
     e( 13 - 14) =     -2.54892  eV     2   --> E    G_5 D_5   
     e( 15 - 15) =     -2.08697  eV     1   --> A_1  G_1 D_1   
     e( 16 - 16) =     -1.44537  eV     1   --> A_1  G_1 D_1   
     e( 17 - 18) =      7.35873  eV     2   --> E    G_5 D_5   
     e( 19 - 19) =      8.12520  eV     1   --> A_1  G_1 D_1   
     e( 20 - 20) =      8.85825  eV     1   --> B_1  G_3 D_2   
     e( 21 - 21) =      8.88928  eV     1   --> A_1  G_1 D_1   
     e( 22 - 23) =      9.63522  eV     2   --> E    G_5 D_5   
     e( 24 - 24) =      9.81556  eV     1   --> B_2  G_4 D_2'  
     e( 25 - 26) =     10.00851  eV     2   --> E    G_5 D_5   
     e( 27 - 28) =     10.45372  eV     2   --> E    G_5 D_5   
     e( 29 - 29) =     10.53267  eV     1   --> A_1  G_1 D_1   
     e( 30 - 31) =     10.77661  eV     2   --> E    G_5 D_5   
     e( 32 - 32) =     10.83711  eV     1   --> B_1  G_3 D_2   
     e( 33 - 33) =     11.57187  eV     1   --> A_1  G_1 D_1   
     e( 34 - 34) =     13.90566  eV     1   --> B_1  G_3 D_2   
     e( 35 - 35) =     15.30955  eV     1   --> A_1  G_1 D_1   
     e( 36 - 36) =     15.35096  eV     1   --> B_1  G_3 D_2   
     e( 37 - 37) =     15.83902  eV     1   --> A_1  G_1 D_1   
     e( 38 - 38) =     15.95563  eV     1   --> B_2  G_4 D_2'  
     e( 39 - 40) =     15.97615  eV     2   --> E    G_5 D_5   

 **************************************************************************

 **************************************************************************

                    xk=(   0.00000,   0.00000,   0.25389  )

     Band symmetry, C_4v (4mm)  point group:

     e(  1 -  1) =    -99.71431  eV     1   --> A_1  G_1 D_1   
     e(  2 -  3) =    -57.29922  eV     2   --> E    G_5 D_5   
     e(  4 -  4) =    -56.75540  eV     1   --> A_1  G_1 D_1   
     e(  5 -  5) =    -19.24816  eV     1   --> A_1  G_1 D_1   
     e(  6 -  6) =    -19.13082  eV     1   --> A_1  G_1 D_1   
     e(  7 -  7) =     -6.89076  eV     1   --> A_1  G_1 D_1   
     e(  8 -  8) =     -5.24886  eV     1   --> A_1  G_1 D_1   
     e(  9 -  9) =     -5.09852  eV     1   --> B_1  G_3 D_2   
     e( 10 - 10) =     -4.53886  eV     1   --> A_1  G_1 D_1   
     e( 11 - 12) =     -2.74356  eV     2   --> E    G_5 D_5   
     e( 13 - 14) =     -2.54734  eV     2   --> E    G_5 D_5   
     e( 15 - 15) =     -2.08417  eV     1   --> A_1  G_1 D_1   
     e( 16 - 16) =     -1.45111  eV     1   --> A_1  G_1 D_1   
     e( 17 - 18) =      7.35810  eV     2   --> E    G_5 D_5   
     e( 19 - 19) =      8.13259  eV     1   --> A_1  G_1 D_1   
     e( 20 - 20) =      8.85891  eV     1   --> B_1  G_3 D_2   
     e( 21 - 21) =      8.89710  eV     1   --> A_1  G_1 D_1   
     e( 22 - 23) =      9.63126  eV     2   --> E    G_5 D_5   
     e( 24 - 24) =      9.81556  eV     1   --> B_2  G_4 D_2'  
     e( 25 - 26) =     10.00742  eV     2   --> E    G_5 D_5   
     e( 27 - 28) =     10.45917  eV     2   --> E    G_5 D_5   
     e( 29 - 29) =     10.51590  eV     1   --> A_1  G_1 D_1   
     e( 30 - 31) =     10.77752  eV     2   --> E    G_5 D_5   
     e( 32 - 32) =     10.83709  eV     1   --> B_1  G_3 D_2   
     e( 33 - 33) =     11.57558  eV     1   --> A_1  G_1 D_1   
     e( 34 - 34) =     13.89566  eV     1   --> B_1  G_3 D_2   
     e( 35 - 35) =     15.30420  eV     1   --> A_1  G_1 D_1   
     e( 36 - 36) =     15.36251  eV     1   --> B_1  G_3 D_2   
     e( 37 - 37) =     15.83705  eV     1   --> A_1  G_1 D_1   
     e( 38 - 38) =     15.95599  eV     1   --> B_2  G_4 D_2'  
     e( 39 - 40) =     15.97643  eV     2   --> E    G_5 D_5   

 **************************************************************************

 **************************************************************************

                    xk=(  -0.00000,  -0.00000,   0.25929  )

     Band symmetry, C_4v (4mm)  point group:

     e(  1 -  1) =    -99.71431  eV     1   --> A_1  G_1 D_1   
     e(  2 -  3) =    -57.29922  eV     2   --> E    G_5 D_5   
     e(  4 -  4) =    -56.75540  eV     1   --> A_1  G_1 D_1   
     e(  5 -  5) =    -19.24739  eV     1   --> A_1  G_1 D_1   
     e(  6 -  6) =    -19.13162  eV     1   --> A_1  G_1 D_1   
     e(  7 -  7) =     -6.88975  eV     1   --> A_1  G_1 D_1   
     e(  8 -  8) =     -5.25223  eV     1   --> A_1  G_1 D_1   
     e(  9 -  9) =     -5.09852  eV     1   --> B_1  G_3 D_2   
     e( 10 - 10) =     -4.53532  eV     1   --> A_1  G_1 D_1   
     e( 11 - 12) =     -2.74500  eV     2   --> E    G_5 D_5   
     e( 13 - 14) =     -2.54578  eV     2   --> E    G_5 D_5   
     e( 15 - 15) =     -2.08129  eV     1   --> A_1  G_1 D_1   
     e( 16 - 16) =     -1.45693  eV     1   --> A_1  G_1 D_1   
     e( 17 - 18) =      7.35746  eV     2   --> E    G_5 D_5   
     e( 19 - 19) =      8.14005  eV     1   --> A_1  G_1 D_1   
     e( 20 - 20) =      8.85957  eV     1   --> B_1  G_3 D_2   
     e( 21 - 21) =      8.90500  eV     1   --> A_1  G_1 D_1   
     e( 22 - 23) =      9.62735  eV     2   --> E    G_5 D_5   
     e( 24 - 24) =      9.81557  eV     1   --> B_2  G_4 D_2'  
     e( 25 - 26) =     10.00632  eV     2   --> E    G_5 D_5   
     e( 27 - 28) =     10.46461  eV     2   --> E    G_5 D_5   
     e( 29 - 29) =     10.49912  eV     1   --> A_1  G_1 D_1   
     e( 30 - 31) =     10.77842  eV     2   --> E    G_5 D_5   
     e( 32 - 32) =     10.83708  eV     1   --> B_1  G_3 D_2   
     e( 33 - 33) =     11.57916  eV     1   --> A_1  G_1 D_1   
     e( 34 - 34) =     13.88578  eV     1   --> B_1  G_3 D_2   
     e( 35 - 35) =     15.29873  eV     1   --> A_1  G_1 D_1   
     e( 36 - 36) =     15.37395  eV     1   --> B_1  G_3 D_2   
     e( 37 - 37) =     15.83510  eV     1   --> A_1  G_1 D_1   
     e( 38 - 38) =     15.95635  eV     1   --> B_2  G_4 D_2'  
     e( 39 - 40) =     15.97671  eV     2   --> E    G_5 D_5   

 **************************************************************************

 **************************************************************************

                    xk=(  -0.00000,  -0.00000,   0.26469  )

     Band symmetry, C_4v (4mm)  point group:

     e(  1 -  1) =    -99.71431  eV     1   --> A_1  G_1 D_1   
     e(  2 -  3) =    -57.29922  eV     2   --> E    G_5 D_5   
     e(  4 -  4) =    -56.75540  eV     1   --> A_1  G_1 D_1   
     e(  5 -  5) =    -19.24661  eV     1   --> A_1  G_1 D_1   
     e(  6 -  6) =    -19.13244  eV     1   --> A_1  G_1 D_1   
     e(  7 -  7) =     -6.88873  eV     1   --> A_1  G_1 D_1   
     e(  8 -  8) =     -5.25557  eV     1   --> A_1  G_1 D_1   
     e(  9 -  9) =     -5.09852  eV     1   --> B_1  G_3 D_2   
     e( 10 - 10) =     -4.53180  eV     1   --> A_1  G_1 D_1   
     e( 11 - 12) =     -2.74642  eV     2   --> E    G_5 D_5   
     e( 13 - 14) =     -2.54424  eV     2   --> E    G_5 D_5   
     e( 15 - 15) =     -2.07833  eV     1   --> A_1  G_1 D_1   
     e( 16 - 16) =     -1.46283  eV     1   --> A_1  G_1 D_1   
     e( 17 - 18) =      7.35683  eV     2   --> E    G_5 D_5   
     e( 19 - 19) =      8.14758  eV     1   --> A_1  G_1 D_1   
     e( 20 - 20) =      8.86023  eV     1   --> B_1  G_3 D_2   
     e( 21 - 21) =      8.91299  eV     1   --> A_1  G_1 D_1   
     e( 22 - 23) =      9.62350  eV     2   --> E    G_5 D_5   
     e( 24 - 24) =      9.81557  eV     1   --> B_2  G_4 D_2'  
     e( 25 - 26) =     10.00521  eV     2   --> E    G_5 D_5   
     e( 27 - 28) =     10.47002  eV     2   --> E    G_5 D_5   
     e( 29 - 29) =     10.48234  eV     1   --> A_1  G_1 D_1   
     e( 30 - 31) =     10.77931  eV     2   --> E    G_5 D_5   
     e( 32 - 32) =     10.83706  eV     1   --> B_1  G_3 D_2   
     e( 33 - 33) =     11.58259  eV     1   --> A_1  G_1 D_1   
     e( 34 - 34) =     13.87602  eV     1   --> B_1  G_3 D_2   
     e( 35 - 35) =     15.29314  eV     1   --> A_1  G_1 D_1   
     e( 36 - 36) =     15.38528  eV     1   --> B_1  G_3 D_2   
     e( 37 - 37) =     15.83317  eV     1   --> A_1  G_1 D_1   
     e( 38 - 38) =     15.95671  eV     1   --> B_2  G_4 D_2'  
     e( 39 - 40) =     15.97699  eV     2   --> E    G_5 D_5   

 **************************************************************************

 **************************************************************************

                    xk=(   0.00000,   0.00000,   0.27009  )

     Band symmetry, C_4v (4mm)  point group:

     e(  1 -  1) =    -99.71431  eV     1   --> A_1  G_1 D_1   
     e(  2 -  3) =    -57.29922  eV     2   --> E    G_5 D_5   
     e(  4 -  4) =    -56.75540  eV     1   --> A_1  G_1 D_1   
     e(  5 -  5) =    -19.24581  eV     1   --> A_1  G_1 D_1   
     e(  6 -  6) =    -19.13327  eV     1   --> A_1  G_1 D_1   
     e(  7 -  7) =     -6.88772  eV     1   --> A_1  G_1 D_1   
     e(  8 -  8) =     -5.25888  eV     1   --> A_1  G_1 D_1   
     e(  9 -  9) =     -5.09853  eV     1   --> B_1  G_3 D_2   
     e( 10 - 10) =     -4.52831  eV     1   --> A_1  G_1 D_1   
     e( 11 - 12) =     -2.74783  eV     2   --> E    G_5 D_5   
     e( 13 - 14) =     -2.54273  eV     2   --> E    G_5 D_5   
     e( 15 - 15) =     -2.07529  eV     1   --> A_1  G_1 D_1   
     e( 16 - 16) =     -1.46882  eV     1   --> A_1  G_1 D_1   
     e( 17 - 18) =      7.35622  eV     2   --> E    G_5 D_5   
     e( 19 - 19) =      8.15518  eV     1   --> A_1  G_1 D_1   
     e( 20 - 20) =      8.86090  eV     1   --> B_1  G_3 D_2   
     e( 21 - 21) =      8.92106  eV     1   --> A_1  G_1 D_1   
     e( 22 - 23) =      9.61970  eV     2   --> E    G_5 D_5   
     e( 24 - 24) =      9.81560  eV     1   --> B_2  G_4 D_2'  
     e( 25 - 26) =     10.00408  eV     2   --> E    G_5 D_5   
     e( 27 - 27) =     10.46557  eV     1   --> A_1  G_1 D_1   
     e( 28 - 29) =     10.47544  eV     2   --> E    G_5 D_5   
     e( 30 - 31) =     10.78020  eV     2   --> E    G_5 D_5   
     e( 32 - 32) =     10.83709  eV     1   --> B_1  G_3 D_2   
     e( 33 - 33) =     11.58592  eV     1   --> A_1  G_1 D_1   
     e( 34 - 34) =     13.86639  eV     1   --> B_1  G_3 D_2   
     e( 35 - 35) =     15.28747  eV     1   --> A_1  G_1 D_1   
     e( 36 - 36) =     15.39651  eV     1   --> B_1  G_3 D_2   
     e( 37 - 37) =     15.83127  eV     1   --> A_1  G_1 D_1   
     e( 38 - 38) =     15.95710  eV     1   --> B_2  G_4 D_2'  
     e( 39 - 40) =     15.97730  eV     2   --> E    G_5 D_5   

 **************************************************************************

     BANDS        :  32m29.87s CPU  33m50.92s WALL


   This run was terminated on:  17:21:20  18Aug2025            

=------------------------------------------------------------------------------=
   JOB DONE.
=------------------------------------------------------------------------------=
