 written on 28Jul2025 at 18:09:03 
  -1.9091446960000000        1.9091446960000000        6.6030980609999999     
   1.9091446960000000       -1.9091446960000000        6.6030980609999999     
   1.9091446960000000        1.9091446960000000       -6.6030980609999999     
           1
         397
    2    2    2    2    2    2    2    4    1    1    2    1    1    2    1
    1    2    1    1    2    1    1    2    1    1    2    1    2    4    2
    2    1    1    4    1    1    1    1    2    1    1    1    1    2    1
    1    1    1    2    1    1    1    1    2    1    1    1    1    2    1
    1    1    2    2    1    2    4    2    2    1    1    2    1    1    1
    1    1    1    1    1    1    1    1    2    1    1    1    1    1    1
    2    1    1    1    1    1    1    2    1    1    1    1    1    1    2
    1    1    1    1    1    2    2    1    1    1    2    2    1    2    2
    2    1    1    2    1    1    1    1    2    1    1    1    1    1    1
    1    1    1    1    1    1    1    1    1    1    1    1    1    1    1
    1    1    1    1    1    1    1    1    1    1    1    1    2    1    1
    1    1    2    1    1    2    2    2    2    1    1    2    1    1    1
    1    2    1    1    1    1    1    1    1    1    1    1    1    1    1
    1    1    1    1    1    1    1    1    1    1    1    1    1    1    1
    1    1    1    1    1    2    1    1    1    1    2    1    1    2    2
    2    2    1    1    2    1    1    1    1    2    1    1    1    1    1
    1    1    1    1    1    1    1    1    1    1    1    1    1    1    1
    1    1    1    1    1    1    1    1    1    1    1    1    1    2    1
    1    1    1    2    1    1    2    2    2    1    2    2    1    1    1
    2    2    1    1    1    1    1    2    1    1    1    1    1    1    2
    1    1    1    1    1    1    2    1    1    1    1    1    1    2    1
    1    1    1    1    1    1    1    1    1    1    2    1    1    2    2
    4    2    1    2    2    1    1    1    2    1    1    1    1    2    1
    1    1    1    2    1    1    1    1    2    1    1    1    1    2    1
    1    1    1    4    1    1    2    2    4    2    1    2    1    1    2
    1    1    2    1    1    2    1    1    2    1    1    2    1    1    4
    2    2    2    2    2    2    2

   -5   -4   -6
    1    1    0.90458629E-04  0.19730745E-13

   -5   -3   -5
    1    1    0.50172168E-05  0.16470159E-12

   -5   -2   -4
    1    1    0.26759884E-03  0.76109258E-13

   -5   -1   -3
    1    1    0.26759958E-03 -0.15026869E-12

   -5    0   -2
    1    1    0.50181108E-05 -0.66605669E-13

   -5    1   -1
    1    1    0.90458926E-04  0.11377704E-12

   -4   -5   -6
    1    1    0.90458630E-04 -0.12333884E-13

   -4   -4   -7
    1    1   -0.13306573E-02  0.34919984E-12

   -4   -4   -6
    1    1   -0.44270890E-03  0.13911883E-12

   -4   -4   -5
    1    1   -0.83277704E-04 -0.23613056E-13

   -4   -3   -6
    1    1   -0.45978716E-03  0.21076890E-12

   -4   -3   -5
    1    1    0.13145875E-03  0.34160175E-13

   -4   -3   -4
    1    1   -0.17577988E-03  0.10961718E-12

   -4   -2   -5
    1    1   -0.25623630E-03  0.61822075E-13

   -4   -2   -4
    1    1   -0.11517162E-03 -0.12433110E-12

   -4   -2   -3
    1    1    0.78884051E-04 -0.71262440E-14

   -4   -1   -4
    1    1   -0.38479224E-02 -0.28566038E-12

   -4   -1   -3
    1    1   -0.64274639E-03 -0.39827169E-12

   -4   -1   -2
    1    1    0.78885132E-04 -0.25983999E-12

   -4    0   -3
    1    1   -0.38479221E-02 -0.48077090E-12

   -4    0   -2
    1    1   -0.11517251E-03 -0.25206573E-12

   -4    0   -1
    1    1   -0.17578727E-03 -0.18812035E-12

   -4    1   -2
    1    1   -0.25623622E-03 -0.11384643E-12

   -4    1   -1
    1    1    0.13145882E-03  0.23068700E-12

   -4    1    0
    1    1   -0.83276603E-04  0.14471063E-13

   -4    2   -1
    1    1   -0.45978736E-03  0.32979522E-12

   -4    2    0
    1    1   -0.44270866E-03  0.34798553E-12

   -4    2    1
    1    1    0.90458630E-04 -0.13176960E-13

   -4    3    0
    1    1   -0.13306573E-02  0.34892922E-12

   -3   -5   -5
    1    1    0.50172174E-05  0.48849813E-14

   -3   -4   -6
    1    1   -0.45978716E-03  0.19861196E-12

   -3   -4   -5
    1    1    0.13145875E-03 -0.16077417E-12

   -3   -4   -4
    1    1   -0.17577988E-03  0.19779317E-13

   -3   -3   -7
    1    1   -0.13306573E-02 -0.34888065E-12

   -3   -3   -6
    1    1    0.19252880E-02 -0.12032042E-13

   -3   -3   -5
    1    1    0.10914638E-02  0.17112353E-12

   -3   -3   -4
    1    1    0.70943594E-03 -0.22699204E-12

   -3   -3   -3
    1    1   -0.27774671E-03  0.16450730E-12

   -3   -2   -6
    1    1   -0.45978736E-03 -0.33148137E-12

   -3   -2   -5
    1    1   -0.25194116E-02 -0.60021432E-14

   -3   -2   -4
    1    1    0.23411210E-02  0.22704061E-13

   -3   -2   -3
    1    1    0.40127338E-03 -0.36710218E-12

   -3   -2   -2
    1    1   -0.33271055E-04  0.37526312E-13

   -3   -1   -5
    1    1   -0.25623622E-03  0.11302070E-12

   -3   -1   -4
    1    1   -0.69083727E-02  0.18398477E-12

   -3   -1   -3
    1    1   -0.27010141E-02 -0.43544257E-12

   -3   -1   -2
    1    1    0.57232419E-04 -0.64200728E-12

   -3   -1   -1
    1    1   -0.33278214E-04 -0.25179164E-12

   -3    0   -4
    1    1   -0.38479221E-02  0.47794832E-12

   -3    0   -3
    1    1    0.35097202E-02  0.17265703E-12

   -3    0   -2
    1    1   -0.27010140E-02 -0.78249213E-12

   -3    0   -1
    1    1    0.40126462E-03 -0.51607676E-12

   -3    0    0
    1    1   -0.27752472E-03 -0.20254978E-12

   -3    1   -3
    1    1   -0.38479224E-02  0.28428648E-12

   -3    1   -2
    1    1   -0.69083727E-02  0.14361082E-12

   -3    1   -1
    1    1    0.23411212E-02 -0.48593421E-12

   -3    1    0
    1    1    0.70943679E-03 -0.69902417E-13

   -3    1    1
    1    1   -0.17578727E-03  0.12639195E-13

   -3    2   -2
    1    1   -0.25623630E-03 -0.63515165E-13

   -3    2   -1
    1    1   -0.25194116E-02  0.28192726E-12

   -3    2    0
    1    1    0.10914639E-02  0.29979491E-13

   -3    2    1
    1    1    0.13145846E-03  0.30683428E-13

   -3    2    2
    1    1    0.50172174E-05  0.48537563E-14

   -3    3   -1
    1    1   -0.45978716E-03 -0.20972460E-12

   -3    3    0
    1    1    0.19252880E-02  0.23773471E-12

   -3    3    1
    1    1   -0.45978716E-03  0.19909074E-12

   -3    4    0
    1    1   -0.13306573E-02 -0.34801328E-12

   -2   -5   -4
    1    1    0.26759884E-03  0.11928306E-12

   -2   -4   -5
    1    1   -0.25623630E-03  0.24484234E-12

   -2   -4   -4
    1    1   -0.11517162E-03 -0.57752414E-13

   -2   -4   -3
    1    1    0.78884051E-04  0.15594470E-12

   -2   -3   -6
    1    1   -0.45978736E-03 -0.20477717E-12

   -2   -3   -5
    1    1   -0.25194116E-02  0.26547167E-12

   -2   -3   -4
    1    1    0.23411210E-02  0.32439329E-12

   -2   -3   -3
    1    1    0.40127338E-03  0.21163626E-14

   -2   -3   -2
    1    1   -0.33271056E-04  0.32706554E-12

   -2   -2   -6
    1    1   -0.44270855E-03 -0.37318412E-12

   -2   -2   -5
    1    1    0.10914639E-02 -0.30799668E-12

   -2   -2   -4
    1    1   -0.51518651E-02  0.34816594E-12

   -2   -2   -3
    1    1    0.91026817E-02  0.24168245E-12

   -2   -2   -2
    1    1   -0.13426579E-03 -0.11449175E-13

   -2   -2   -1
    1    1    0.19548495E-03  0.20692476E-12

   -2   -2    0
    1    1    0.26401907E-03 -0.42493786E-13

   -2   -1   -6
    1    1    0.90458926E-04 -0.11332602E-12

   -2   -1   -5
    1    1    0.13145876E-03 -0.32841785E-12

   -2   -1   -4
    1    1    0.23411213E-02  0.45127870E-13

   -2   -1   -3
    1    1   -0.25915947E-01  0.54556012E-12

   -2   -1   -2
    1    1    0.19414707E-02 -0.25420638E-12

   -2   -1   -1
    1    1   -0.30538085E-03 -0.24945671E-12

   -2   -1    0
    1    1    0.19548566E-03 -0.88918456E-13

   -2    0   -5
    1    1    0.50181108E-05  0.66419866E-13

   -2    0   -4
    1    1   -0.11517253E-03  0.42323783E-13

   -2    0   -3
    1    1   -0.27010137E-02  0.40572407E-12

   -2    0   -2
    1    1   -0.38151491E-01  0.48064677E-12

   -2    0   -1
    1    1    0.19414727E-02 -0.70447467E-12

   -2    0    0
    1    1   -0.13399821E-03 -0.22000457E-12

   -2    0    1
    1    1   -0.33278628E-04 -0.51479654E-13

   -2    1   -4
    1    1    0.26759958E-03  0.15014379E-12

   -2    1   -3
    1    1   -0.64274665E-03  0.12876158E-12

   -2    1   -2
    1    1   -0.27010138E-02  0.28953576E-12

   -2    1   -1
    1    1   -0.25915947E-01  0.36723402E-12

   -2    1    0
    1    1    0.91026814E-02 -0.49295290E-12

   -2    1    1
    1    1    0.40126417E-03  0.71637743E-13

   -2    1    2
    1    1    0.78884918E-04  0.13813256E-12

   -2    2   -3
    1    1    0.26759884E-03 -0.76865597E-13

   -2    2   -2
    1    1   -0.11517238E-03 -0.10509649E-12

   -2    2   -1
    1    1    0.23411212E-02  0.58154870E-13

   -2    2    0
    1    1   -0.51518651E-02  0.44708682E-12

   -2    2    1
    1    1    0.23411212E-02  0.11685097E-13

   -2    2    2
    1    1   -0.11517238E-03  0.90975838E-13

   -2    2    3
    1    1    0.26759884E-03  0.12165963E-12

   -2    3   -2
    1    1    0.50172168E-05 -0.16436852E-12

   -2    3   -1
    1    1    0.13145846E-03 -0.16949576E-12

   -2    3    0
    1    1    0.10914639E-02 -0.22024049E-13

   -2    3    1
    1    1   -0.25194116E-02  0.42651299E-12

   -2    3    2
    1    1   -0.25623630E-03  0.24682686E-12

   -2    4   -1
    1    1    0.90458629E-04 -0.19602375E-13

   -2    4    0
    1    1   -0.44270866E-03 -0.18399865E-12

   -2    4    1
    1    1   -0.45978736E-03 -0.20455512E-12

   -1   -5   -3
    1    1    0.26759958E-03  0.45796700E-13

   -1   -4   -4
    1    1   -0.38479224E-02  0.47666038E-12

   -1   -4   -3
    1    1   -0.64274639E-03  0.67307271E-13

   -1   -4   -2
    1    1    0.78885132E-04  0.74475922E-13

   -1   -3   -5
    1    1   -0.25623622E-03 -0.69527717E-13

   -1   -3   -4
    1    1   -0.69083727E-02  0.33806985E-12

   -1   -3   -3
    1    1   -0.27010141E-02  0.57611632E-12

   -1   -3   -2
    1    1    0.57232418E-04  0.26224509E-12

   -1   -3   -1
    1    1   -0.33278214E-04  0.25571906E-12

   -1   -2   -6
    1    1    0.90458927E-04  0.55150329E-13

   -1   -2   -5
    1    1    0.13145876E-03  0.25188185E-14

   -1   -2   -4
    1    1    0.23411213E-02 -0.15692578E-12

   -1   -2   -3
    1    1   -0.25915947E-01  0.46764329E-12

   -1   -2   -2
    1    1    0.19414707E-02  0.56332022E-12

   -1   -2   -1
    1    1   -0.30538085E-03  0.39394529E-12

   -1   -2    0
    1    1    0.19548566E-03  0.16798715E-12

   -1   -1   -5
    1    1   -0.83276566E-04 -0.36497809E-13

   -1   -1   -4
    1    1    0.70943669E-03 -0.56028099E-13

   -1   -1   -3
    1    1    0.91026814E-02  0.14199059E-12

   -1   -1   -2
    1    1    0.34233916E-01  0.63713271E-12

   -1   -1   -1
    1    1   -0.83958712E-02  0.14169568E-12

   -1   -1    0
    1    1   -0.32626251E-03  0.19166613E-12

   -1   -1    1
    1    1    0.19548516E-03 -0.98164532E-13

   -1    0   -4
    1    1   -0.17578728E-03  0.12521928E-12

   -1    0   -3
    1    1    0.40126414E-03  0.14840559E-12

   -1    0   -2
    1    1    0.19414724E-02  0.41944573E-12

   -1    0   -1
    1    1   -0.44032055E+00  0.48093474E-12

   -1    0    0
    1    1   -0.83959328E-02 -0.27740310E-12

   -1    0    1
    1    1   -0.30538926E-03  0.12126471E-12

   -1    0    2
    1    1   -0.33278728E-04 -0.69430572E-13

   -1    1   -3
    1    1    0.78885045E-04  0.19128102E-12

   -1    1   -2
    1    1    0.57233372E-04  0.13969381E-12

   -1    1   -1
    1    1    0.19414724E-02  0.26286612E-12

   -1    1    0
    1    1    0.34233916E-01  0.27198383E-12

   -1    1    1
    1    1    0.19414724E-02 -0.11249335E-12

   -1    1    2
    1    1    0.57233372E-04  0.27113034E-12

   -1    1    3
    1    1    0.78885045E-04  0.87430063E-13

   -1    2   -2
    1    1    0.78884918E-04 -0.31655234E-13

   -1    2   -1
    1    1    0.40126417E-03 -0.59791847E-13

   -1    2    0
    1    1    0.91026814E-02  0.63685168E-13

   -1    2    1
    1    1   -0.25915947E-01  0.34122011E-12

   -1    2    2
    1    1   -0.27010138E-02  0.30081840E-12

   -1    2    3
    1    1   -0.64274665E-03  0.19536803E-12

   -1    2    4
    1    1    0.26759958E-03  0.45560777E-13

   -1    3   -1
    1    1   -0.17578727E-03 -0.88436203E-13

   -1    3    0
    1    1    0.70943679E-03  0.18061941E-13

   -1    3    1
    1    1    0.23411212E-02  0.54154597E-13

   -1    3    2
    1    1   -0.69083727E-02  0.40054418E-12

   -1    3    3
    1    1   -0.38479224E-02  0.47792326E-12

   -1    4    0
    1    1   -0.83276603E-04  0.82680390E-13

   -1    4    1
    1    1    0.13145882E-03  0.15603838E-12

   -1    4    2
    1    1   -0.25623622E-03 -0.69090567E-13

   -1    5    1
    1    1    0.90458927E-04  0.54553584E-13

    0   -5   -2
    1    1    0.50181112E-05 -0.11236074E-12

    0   -4   -3
    1    1   -0.38479221E-02  0.33245359E-12

    0   -4   -2
    1    1   -0.11517251E-03 -0.16359830E-12

    0   -4   -1
    1    1   -0.17578727E-03 -0.11547013E-12

    0   -3   -4
    1    1   -0.38479221E-02 -0.33531781E-12

    0   -3   -3
    1    1    0.35097202E-02 -0.10890594E-13

    0   -3   -2
    1    1   -0.27010140E-02  0.33883313E-12

    0   -3   -1
    1    1    0.40126462E-03  0.71092437E-13

    0   -3    0
    1    1   -0.27752472E-03  0.64403344E-13

    0   -2   -5
    1    1    0.50181112E-05  0.11214718E-12

    0   -2   -4
    1    1   -0.11517253E-03  0.34135889E-13

    0   -2   -3
    1    1   -0.27010137E-02 -0.29474340E-12

    0   -2   -2
    1    1   -0.38151491E-01  0.11135884E-12

    0   -2   -1
    1    1    0.19414727E-02  0.35488626E-12

    0   -2    0
    1    1   -0.13399821E-03  0.24162616E-12

    0   -2    1
    1    1   -0.33278628E-04  0.10845491E-13

    0   -1   -4
    1    1   -0.17578728E-03  0.40668857E-13

    0   -1   -3
    1    1    0.40126414E-03 -0.81712415E-13

    0   -1   -2
    1    1    0.19414724E-02  0.27190056E-13

    0   -1   -1
    1    1   -0.44032055E+00  0.22783164E-12

    0   -1    0
    1    1   -0.83959328E-02  0.69708128E-13

    0   -1    1
    1    1   -0.30538926E-03  0.49655327E-13

    0   -1    2
    1    1   -0.33278728E-04 -0.22584712E-12

    0    0   -3
    1    1   -0.27752475E-03  0.18670135E-12

    0    0   -2
    1    1   -0.13399887E-03  0.32029934E-13

    0    0   -1
    1    1   -0.83959308E-02  0.21791596E-12

    0    0    0
    1    1    0.12895622E+02  0.21873827E-16

    0    0    1
    1    1   -0.83959308E-02 -0.21786739E-12

    0    0    2
    1    1   -0.13399887E-03 -0.32154834E-13

    0    0    3
    1    1   -0.27752475E-03 -0.18671176E-12

    0    1   -2
    1    1   -0.33278728E-04  0.22587487E-12

    0    1   -1
    1    1   -0.30538926E-03 -0.49605550E-13

    0    1    0
    1    1   -0.83959328E-02 -0.69708128E-13

    0    1    1
    1    1   -0.44032055E+00 -0.22781083E-12

    0    1    2
    1    1    0.19414724E-02 -0.27190056E-13

    0    1    3
    1    1    0.40126414E-03  0.81674251E-13

    0    1    4
    1    1   -0.17578728E-03 -0.40689674E-13

    0    2   -1
    1    1   -0.33278628E-04 -0.10914880E-13

    0    2    0
    1    1   -0.13399821E-03 -0.24150820E-12

    0    2    1
    1    1    0.19414727E-02 -0.35496259E-12

    0    2    2
    1    1   -0.38151491E-01 -0.11133802E-12

    0    2    3
    1    1   -0.27010137E-02  0.29473646E-12

    0    2    4
    1    1   -0.11517253E-03 -0.34132419E-13

    0    2    5
    1    1    0.50181112E-05 -0.11220148E-12

    0    3    0
    1    1   -0.27752472E-03 -0.64424160E-13

    0    3    1
    1    1    0.40126462E-03 -0.71057743E-13

    0    3    2
    1    1   -0.27010140E-02 -0.33891639E-12

    0    3    3
    1    1    0.35097202E-02  0.10883655E-13

    0    3    4
    1    1   -0.38479221E-02  0.33531901E-12

    0    4    1
    1    1   -0.17578727E-03  0.11544932E-12

    0    4    2
    1    1   -0.11517251E-03  0.16366769E-12

    0    4    3
    1    1   -0.38479221E-02 -0.33243157E-12

    0    5    2
    1    1    0.50181112E-05  0.11231337E-12

    1   -5   -1
    1    1    0.90458927E-04 -0.54546645E-13

    1   -4   -2
    1    1   -0.25623622E-03  0.69201589E-13

    1   -4   -1
    1    1    0.13145882E-03 -0.15600368E-12

    1   -4    0
    1    1   -0.83276603E-04 -0.82590185E-13

    1   -3   -3
    1    1   -0.38479224E-02 -0.47794407E-12

    1   -3   -2
    1    1   -0.69083727E-02 -0.40057888E-12

    1   -3   -1
    1    1    0.23411212E-02 -0.54106025E-13

    1   -3    0
    1    1    0.70943679E-03 -0.18110513E-13

    1   -3    1
    1    1   -0.17578727E-03  0.88450081E-13

    1   -2   -4
    1    1    0.26759958E-03 -0.45546900E-13

    1   -2   -3
    1    1   -0.64274665E-03 -0.19535068E-12

    1   -2   -2
    1    1   -0.27010138E-02 -0.30081840E-12

    1   -2   -1
    1    1   -0.25915947E-01 -0.34131031E-12

    1   -2    0
    1    1    0.91026814E-02 -0.63574146E-13

    1   -2    1
    1    1    0.40126417E-03  0.59813868E-13

    1   -2    2
    1    1    0.78884918E-04  0.31634417E-13

    1   -1   -3
    1    1    0.78885045E-04 -0.87454349E-13

    1   -1   -2
    1    1    0.57233372E-04 -0.27114422E-12

    1   -1   -1
    1    1    0.19414724E-02  0.11250029E-12

    1   -1    0
    1    1    0.34233916E-01 -0.27211566E-12

    1   -1    1
    1    1    0.19414724E-02 -0.26277591E-12

    1   -1    2
    1    1    0.57233372E-04 -0.13965218E-12

    1   -1    3
    1    1    0.78885045E-04 -0.19126367E-12

    1    0   -2
    1    1   -0.33278728E-04  0.69472206E-13

    1    0   -1
    1    1   -0.30538926E-03 -0.12127045E-12

    1    0    0
    1    1   -0.83959328E-02  0.27729208E-12

    1    0    1
    1    1   -0.44032055E+00 -0.48103882E-12

    1    0    2
    1    1    0.19414724E-02 -0.41933471E-12

    1    0    3
    1    1    0.40126414E-03 -0.14842988E-12

    1    0    4
    1    1   -0.17578728E-03 -0.12521234E-12

    1    1   -1
    1    1    0.19548516E-03  0.98199227E-13

    1    1    0
    1    1   -0.32626251E-03 -0.19177021E-12

    1    1    1
    1    1   -0.83958712E-02 -0.14179977E-12

    1    1    2
    1    1    0.34233916E-01 -0.63719516E-12

    1    1    3
    1    1    0.91026814E-02 -0.14195589E-12

    1    1    4
    1    1    0.70943669E-03  0.55989935E-13

    1    1    5
    1    1   -0.83276566E-04  0.36457380E-13

    1    2    0
    1    1    0.19548566E-03 -0.16784144E-12

    1    2    1
    1    1   -0.30538085E-03 -0.39399387E-12

    1    2    2
    1    1    0.19414707E-02 -0.56325777E-12

    1    2    3
    1    1   -0.25915947E-01 -0.46764329E-12

    1    2    4
    1    1    0.23411213E-02  0.15689923E-12

    1    2    5
    1    1    0.13145876E-03 -0.24875935E-14

    1    2    6
    1    1    0.90458927E-04 -0.55143390E-13

    1    3    1
    1    1   -0.33278214E-04 -0.25569824E-12

    1    3    2
    1    1    0.57232418E-04 -0.26226937E-12

    1    3    3
    1    1   -0.27010141E-02 -0.57611164E-12

    1    3    4
    1    1   -0.69083727E-02 -0.33805597E-12

    1    3    5
    1    1   -0.25623622E-03  0.69576289E-13

    1    4    2
    1    1    0.78885132E-04 -0.74467778E-13

    1    4    3
    1    1   -0.64274639E-03 -0.67321149E-13

    1    4    4
    1    1   -0.38479224E-02 -0.47671589E-12

    1    5    3
    1    1    0.26759958E-03 -0.45727311E-13

    2   -4   -1
    1    1   -0.45978736E-03  0.20456206E-12

    2   -4    0
    1    1   -0.44270866E-03  0.18400559E-12

    2   -4    1
    1    1    0.90458629E-04  0.19588497E-13

    2   -3   -2
    1    1   -0.25623630E-03 -0.24681646E-12

    2   -3   -1
    1    1   -0.25194116E-02 -0.42656156E-12

    2   -3    0
    1    1    0.10914639E-02  0.21968538E-13

    2   -3    1
    1    1    0.13145846E-03  0.16947615E-12

    2   -3    2
    1    1    0.50172168E-05  0.16436158E-12

    2   -2   -3
    1    1    0.26759884E-03 -0.12162840E-12

    2   -2   -2
    1    1   -0.11517238E-03 -0.90941144E-13

    2   -2   -1
    1    1    0.23411212E-02 -0.11761425E-13

    2   -2    0
    1    1   -0.51518651E-02 -0.44704517E-12

    2   -2    1
    1    1    0.23411212E-02 -0.58203442E-13

    2   -2    2
    1    1   -0.11517238E-03  0.10508261E-12

    2   -2    3
    1    1    0.26759884E-03  0.76848250E-13

    2   -1   -2
    1    1    0.78884918E-04 -0.13817419E-12

    2   -1   -1
    1    1    0.40126417E-03 -0.71546333E-13

    2   -1    0
    1    1    0.91026814E-02  0.49300841E-12

    2   -1    1
    1    1   -0.25915947E-01 -0.36715769E-12

    2   -1    2
    1    1   -0.27010138E-02 -0.28952188E-12

    2   -1    3
    1    1   -0.64274665E-03 -0.12884138E-12

    2   -1    4
    1    1    0.26759958E-03 -0.15015073E-12

    2    0   -1
    1    1   -0.33278628E-04  0.51549043E-13

    2    0    0
    1    1   -0.13399821E-03  0.21912333E-12

    2    0    1
    1    1    0.19414727E-02  0.70441222E-12

    2    0    2
    1    1   -0.38151491E-01 -0.48070922E-12

    2    0    3
    1    1   -0.27010137E-02 -0.40573100E-12

    2    0    4
    1    1   -0.11517253E-03 -0.42341131E-13

    2    0    5
    1    1    0.50181108E-05 -0.66425600E-13

    2    1    0
    1    1    0.19548566E-03  0.88786617E-13

    2    1    1
    1    1   -0.30538085E-03  0.24936650E-12

    2    1    2
    1    1    0.19414707E-02  0.25422026E-12

    2    1    3
    1    1   -0.25915947E-01 -0.54551155E-12

    2    1    4
    1    1    0.23411213E-02 -0.45105849E-13

    2    1    5
    1    1    0.13145876E-03  0.32835193E-12

    2    1    6
    1    1    0.90458926E-04  0.11330520E-12

    2    2    0
    1    1    0.26401907E-03  0.42663789E-13

    2    2    1
    1    1    0.19548495E-03 -0.20693169E-12

    2    2    2
    1    1   -0.13426579E-03  0.11483869E-13

    2    2    3
    1    1    0.91026817E-02 -0.24171247E-12

    2    2    4
    1    1   -0.51518651E-02 -0.34812431E-12

    2    2    5
    1    1    0.10914639E-02  0.30798281E-12

    2    2    6
    1    1   -0.44270855E-03  0.37310779E-12

    2    3    2
    1    1   -0.33271056E-04 -0.32701576E-12

    2    3    3
    1    1    0.40127338E-03 -0.20955460E-14

    2    3    4
    1    1    0.23411210E-02 -0.32437941E-12

    2    3    5
    1    1   -0.25194116E-02 -0.26545779E-12

    2    3    6
    1    1   -0.45978736E-03  0.20483615E-12

    2    4    3
    1    1    0.78884051E-04 -0.15593082E-12

    2    4    4
    1    1   -0.11517162E-03  0.57811395E-13

    2    4    5
    1    1   -0.25623630E-03 -0.24480071E-12

    2    5    4
    1    1    0.26759884E-03 -0.11926571E-12

    3   -4    0
    1    1   -0.13306573E-02  0.34783981E-12

    3   -3   -1
    1    1   -0.45978716E-03 -0.19907687E-12

    3   -3    0
    1    1    0.19252880E-02 -0.23780755E-12

    3   -3    1
    1    1   -0.45978716E-03  0.20971419E-12

    3   -2   -2
    1    1    0.50172174E-05 -0.49196758E-14

    3   -2   -1
    1    1    0.13145846E-03 -0.30744673E-13

    3   -2    0
    1    1    0.10914639E-02 -0.29788672E-13

    3   -2    1
    1    1   -0.25194116E-02 -0.28196889E-12

    3   -2    2
    1    1   -0.25623630E-03  0.63459654E-13

    3   -1   -1
    1    1   -0.17578727E-03 -0.12718993E-13

    3   -1    0
    1    1    0.70943679E-03  0.69798334E-13

    3   -1    1
    1    1    0.23411212E-02  0.48601054E-12

    3   -1    2
    1    1   -0.69083727E-02 -0.14356918E-12

    3   -1    3
    1    1   -0.38479224E-02 -0.28434199E-12

    3    0    0
    1    1   -0.27752472E-03  0.20277877E-12

    3    0    1
    1    1    0.40126462E-03  0.51605595E-12

    3    0    2
    1    1   -0.27010140E-02  0.78240886E-12

    3    0    3
    1    1    0.35097202E-02 -0.17267091E-12

    3    0    4
    1    1   -0.38479221E-02 -0.47789507E-12

    3    1    1
    1    1   -0.33278214E-04  0.25172919E-12

    3    1    2
    1    1    0.57232419E-04  0.64196565E-12

    3    1    3
    1    1   -0.27010141E-02  0.43544031E-12

    3    1    4
    1    1   -0.69083727E-02 -0.18397089E-12

    3    1    5
    1    1   -0.25623622E-03 -0.11308315E-12

    3    2    2
    1    1   -0.33271055E-04 -0.37545924E-13

    3    2    3
    1    1    0.40127338E-03  0.36710218E-12

    3    2    4
    1    1    0.23411210E-02 -0.22717939E-13

    3    2    5
    1    1   -0.25194116E-02  0.60229599E-14

    3    2    6
    1    1   -0.45978736E-03  0.33151260E-12

    3    3    3
    1    1   -0.27774671E-03 -0.16449342E-12

    3    3    4
    1    1    0.70943594E-03  0.22698163E-12

    3    3    5
    1    1    0.10914638E-02 -0.17112353E-12

    3    3    6
    1    1    0.19252880E-02  0.12052859E-13

    3    3    7
    1    1   -0.13306573E-02  0.34865513E-12

    3    4    4
    1    1   -0.17577988E-03 -0.19845237E-13

    3    4    5
    1    1    0.13145875E-03  0.16073948E-12

    3    4    6
    1    1   -0.45978716E-03 -0.19860849E-12

    3    5    5
    1    1    0.50172174E-05 -0.49335536E-14

    4   -3    0
    1    1   -0.13306573E-02 -0.34898473E-12

    4   -2   -1
    1    1    0.90458630E-04  0.13170021E-13

    4   -2    0
    1    1   -0.44270866E-03 -0.34786757E-12

    4   -2    1
    1    1   -0.45978736E-03 -0.32981604E-12

    4   -1    0
    1    1   -0.83276603E-04 -0.14436369E-13

    4   -1    1
    1    1    0.13145882E-03 -0.23063843E-12

    4   -1    2
    1    1   -0.25623622E-03  0.11379786E-12

    4    0    1
    1    1   -0.17578727E-03  0.18811341E-12

    4    0    2
    1    1   -0.11517251E-03  0.25206920E-12

    4    0    3
    1    1   -0.38479221E-02  0.48079292E-12

    4    1    2
    1    1    0.78885132E-04  0.25987589E-12

    4    1    3
    1    1   -0.64274639E-03  0.39825782E-12

    4    1    4
    1    1   -0.38479224E-02  0.28565345E-12

    4    2    3
    1    1    0.78884051E-04  0.70776718E-14

    4    2    4
    1    1   -0.11517162E-03  0.12427212E-12

    4    2    5
    1    1   -0.25623630E-03 -0.61877586E-13

    4    3    4
    1    1   -0.17577988E-03 -0.10968310E-12

    4    3    5
    1    1    0.13145875E-03 -0.34118541E-13

    4    3    6
    1    1   -0.45978716E-03 -0.21076543E-12

    4    4    5
    1    1   -0.83277704E-04  0.23536728E-13

    4    4    6
    1    1   -0.44270890E-03 -0.13909681E-12

    4    4    7
    1    1   -0.13306573E-02 -0.34925188E-12

    4    5    6
    1    1    0.90458630E-04  0.12184698E-13

    5   -1    1
    1    1    0.90458926E-04 -0.11368684E-12

    5    0    2
    1    1    0.50181108E-05  0.66613813E-13

    5    1    3
    1    1    0.26759958E-03  0.15031032E-12

    5    2    4
    1    1    0.26759884E-03 -0.76098849E-13

    5    3    5
    1    1    0.50172168E-05 -0.16475016E-12

    5    4    6
    1    1    0.90458629E-04 -0.19720336E-13

   -5   -4   -6
    1    1    0.78005025E-11  0.46264745E-10 -0.79066686E-11  0.57190095E-11 -0.95262076E-11 -0.13041654E-10

   -5   -3   -5
    1    1    0.46959687E-10 -0.22413625E-10 -0.52951359E-11 -0.22440892E-10 -0.22899732E-11  0.12068071E-10

   -5   -2   -4
    1    1   -0.41008720E-10  0.27838271E-10 -0.97776736E-11  0.72130965E-11  0.92659504E-11 -0.10057890E-10

   -5   -1   -3
    1    1    0.34195994E-10 -0.48606851E-10 -0.20463908E-10 -0.33099195E-10 -0.28306768E-11  0.33620409E-11

   -5    0   -2
    1    1   -0.53843576E-10  0.52180878E-10  0.26459493E-10  0.67034595E-11 -0.56528194E-11 -0.48400320E-11

   -5    1   -1
    1    1    0.54818432E-10 -0.13129140E-10 -0.30144647E-10 -0.57834458E-12  0.18239312E-10  0.29131182E-11

   -4   -5   -6
    1    1    0.45002586E-11  0.27977542E-10 -0.13528854E-10 -0.35883037E-10  0.17439795E-10  0.20121152E-10

   -4   -4   -7
    1    1    0.25162330E-11 -0.12359075E-11  0.55084835E-11 -0.20864999E-11 -0.18097836E-10 -0.36272016E-10

   -4   -4   -6
    1    1    0.84737264E-11  0.21464973E-10 -0.83414083E-11 -0.53744839E-11  0.17718883E-10  0.46540448E-11

   -4   -4   -5
    1    1    0.59171531E-11  0.42090072E-11 -0.18883287E-10 -0.72501881E-11 -0.56993173E-11 -0.13309502E-10

   -4   -3   -6
    1    1    0.96920626E-11  0.60667021E-11 -0.11299433E-11  0.60857164E-11  0.23657986E-10  0.11190218E-10

   -4   -3   -5
    1    1    0.36239974E-11 -0.20069891E-10  0.12855871E-10  0.77139184E-11  0.41797026E-11 -0.49114745E-10

   -4   -3   -4
    1    1    0.29619184E-10 -0.22265990E-10  0.22885825E-10  0.29343354E-10 -0.18155386E-10 -0.54751953E-11

   -4   -2   -5
    1    1    0.38142364E-11 -0.15125281E-10  0.17546873E-11 -0.38319132E-11 -0.25762272E-10 -0.34194995E-10

   -4   -2   -4
    1    1   -0.83481289E-11 -0.43562057E-10 -0.34536290E-11 -0.29448092E-11  0.34101050E-10  0.24671906E-10

   -4   -2   -3
    1    1   -0.16090872E-10 -0.13446444E-10 -0.81938097E-11 -0.24987590E-10  0.18041080E-10  0.30673717E-10

   -4   -1   -4
    1    1    0.13219734E-10 -0.25503703E-10  0.46878232E-11  0.21961756E-11  0.15816172E-10  0.40525771E-10

   -4   -1   -3
    1    1    0.55264602E-10  0.11343104E-09 -0.55103359E-11 -0.40090279E-11 -0.40935027E-10  0.17126774E-10

   -4   -1   -2
    1    1   -0.46074437E-10  0.40404787E-10  0.13931448E-10  0.36600122E-10 -0.21379227E-10 -0.22769292E-10

   -4    0   -3
    1    1   -0.94265579E-10  0.54006581E-10 -0.73831086E-11 -0.39926975E-11 -0.13286045E-10 -0.75922950E-12

   -4    0   -2
    1    1   -0.49127906E-10 -0.12297053E-09  0.18572653E-10 -0.13011348E-10 -0.88183973E-11 -0.77307911E-10

   -4    0   -1
    1    1    0.29759082E-10 -0.24773453E-10 -0.45071825E-10 -0.49863829E-10  0.12273606E-10  0.12417777E-10

   -4    1   -2
    1    1    0.50850611E-10 -0.23052283E-10  0.74320937E-11  0.10309810E-10  0.93543159E-11 -0.27926990E-10

   -4    1   -1
    1    1    0.59625997E-11  0.38433332E-10 -0.27399448E-10  0.57648821E-12  0.21271110E-10  0.33494683E-10

   -4    1    0
    1    1   -0.20377564E-10 -0.14000402E-10  0.24786725E-10  0.71386937E-10 -0.20223362E-10 -0.27906846E-10

   -4    2   -1
    1    1   -0.34399081E-11 -0.20982335E-11 -0.29572294E-11 -0.11244063E-10  0.10502593E-10  0.33544369E-10

   -4    2    0
    1    1   -0.18109471E-10 -0.72251093E-11  0.16484282E-10  0.65030835E-12 -0.44082731E-11 -0.19460820E-10

   -4    2    1
    1    1    0.45002647E-11  0.27977535E-10 -0.13528853E-10 -0.35883043E-10  0.17439794E-10  0.20121149E-10

   -4    3    0
    1    1    0.25162341E-11 -0.12359086E-11  0.55084855E-11 -0.20864980E-11 -0.18097843E-10 -0.36272012E-10

   -3   -5   -5
    1    1    0.95063063E-11  0.32822724E-11  0.32239668E-10  0.61065825E-10 -0.21712168E-10 -0.21952746E-10

   -3   -4   -6
    1    1   -0.20542993E-11 -0.62671200E-11 -0.25300154E-10 -0.16687558E-10  0.15012361E-10  0.11335947E-10

   -3   -4   -5
    1    1   -0.12676085E-11 -0.10821580E-10  0.30095653E-10  0.23809180E-10 -0.46242935E-10  0.15843877E-10

   -3   -4   -4
    1    1    0.13780592E-10 -0.21087806E-10 -0.26423532E-10  0.93556401E-11  0.78352833E-11  0.13981492E-10

   -3   -3   -7
    1    1    0.25162330E-11  0.12359087E-11  0.55084923E-11  0.20865008E-11 -0.18097841E-10  0.36272007E-10

   -3   -3   -6
    1    1    0.81021422E-11 -0.20975747E-11  0.13984759E-10 -0.17951318E-11  0.42604626E-10  0.22968777E-10

   -3   -3   -5
    1    1    0.82489030E-11  0.66023635E-11  0.35176722E-10  0.34651293E-11 -0.15814338E-10 -0.38286610E-10

   -3   -3   -4
    1    1    0.35701433E-10  0.30402215E-10 -0.19951588E-10  0.81671765E-11  0.85692593E-11 -0.73040126E-11

   -3   -3   -3
    1    1   -0.29375639E-10  0.21828257E-10  0.36132001E-11 -0.16898266E-10  0.68983395E-11  0.84395768E-12

   -3   -2   -6
    1    1   -0.34399088E-11  0.20982403E-11 -0.29572344E-11  0.11244054E-10  0.10502588E-10 -0.33544374E-10

   -3   -2   -5
    1    1   -0.67156788E-10  0.20397024E-10 -0.14243379E-10  0.69923049E-11  0.31354749E-11  0.52996911E-10

   -3   -2   -4
    1    1   -0.58999771E-11  0.68185888E-11 -0.17343539E-10  0.18244195E-10 -0.26854641E-10 -0.25488306E-10

   -3   -2   -3
    1    1   -0.41358931E-10  0.25681164E-10 -0.80136704E-11 -0.26995919E-10 -0.41316587E-10  0.64178132E-11

   -3   -2   -2
    1    1    0.42914408E-10  0.16911420E-10  0.41775776E-10  0.47129298E-10 -0.35649207E-10 -0.11193641E-11

   -3   -1   -5
    1    1    0.50850616E-10  0.23052273E-10  0.74320953E-11 -0.10309795E-10  0.93543196E-11  0.27926985E-10

   -3   -1   -4
    1    1    0.44089755E-10 -0.59039918E-10  0.61302300E-11 -0.23042613E-11 -0.11606519E-10 -0.28972912E-10

   -3   -1   -3
    1    1    0.27805082E-10  0.39772065E-10 -0.26140705E-10 -0.17818789E-10 -0.26346756E-10  0.22968406E-10

   -3   -1   -2
    1    1   -0.34002640E-10 -0.13481306E-09  0.62150476E-11  0.44068680E-10  0.46548298E-10 -0.34560264E-10

   -3   -1   -1
    1    1   -0.50482283E-10  0.92519480E-11 -0.65496839E-10 -0.41311165E-10  0.25756795E-10  0.22290688E-10

   -3    0   -4
    1    1   -0.94265580E-10 -0.54006579E-10 -0.73831095E-11  0.39926898E-11 -0.13286045E-10  0.75923528E-12

   -3    0   -3
    1    1   -0.66785323E-10  0.49990209E-10  0.14767666E-11 -0.40601581E-11 -0.86027326E-11  0.20289931E-10

   -3    0   -2
    1    1   -0.13507628E-10 -0.11144621E-09  0.15300845E-10  0.25100351E-10  0.23794675E-10 -0.29992718E-10

   -3    0   -1
    1    1    0.74916531E-10  0.10136167E-09 -0.95748343E-11  0.12654239E-11 -0.43501465E-11  0.59203950E-10

   -3    0    0
    1    1   -0.16402647E-10 -0.21256472E-10  0.70985465E-10  0.88186435E-10 -0.33569581E-10 -0.21970062E-10

   -3    1   -3
    1    1    0.13219739E-10  0.25503695E-10  0.46878303E-11 -0.21961662E-11  0.15816170E-10 -0.40525775E-10

   -3    1   -2
    1    1   -0.31137591E-11 -0.26718137E-10 -0.29929364E-11  0.26741391E-11 -0.34277893E-10  0.42635404E-10

   -3    1   -1
    1    1   -0.36193002E-10  0.32516790E-10 -0.28307331E-10 -0.51916386E-11 -0.53855546E-10 -0.71973973E-11

   -3    1    0
    1    1   -0.40566443E-10 -0.41945563E-10  0.36995381E-10 -0.19264561E-10  0.76533218E-11 -0.33092917E-10

   -3    1    1
    1    1    0.19356366E-10  0.40363088E-11 -0.66746089E-10 -0.92672487E-10  0.48834812E-10  0.28118090E-10

   -3    2   -2
    1    1    0.38142357E-11  0.15125293E-10  0.17546853E-11  0.38319050E-11 -0.25762271E-10  0.34194989E-10

   -3    2   -1
    1    1    0.32766481E-10 -0.73734668E-11  0.27671778E-11 -0.19653990E-11  0.94069230E-11 -0.25037422E-11

   -3    2    0
    1    1    0.19102304E-10  0.14249506E-10  0.34883263E-10  0.28216068E-10  0.26082302E-10  0.86491483E-11

   -3    2    1
    1    1    0.38465974E-11  0.20308373E-10 -0.31189977E-10 -0.36909100E-10  0.18238671E-11  0.89891878E-11

   -3    2    2
    1    1    0.95063109E-11  0.32822786E-11  0.32239672E-10  0.61065831E-10 -0.21712166E-10 -0.21952739E-10

   -3    3   -1
    1    1    0.96920613E-11 -0.60667068E-11 -0.11299421E-11 -0.60857131E-11  0.23657988E-10 -0.11190211E-10

   -3    3    0
    1    1   -0.11172894E-10  0.22387024E-11 -0.97669644E-11  0.18820744E-11 -0.37503862E-10  0.10262507E-10

   -3    3    1
    1    1   -0.20542976E-11 -0.62671174E-11 -0.25300155E-10 -0.16687562E-10  0.15012367E-10  0.11335953E-10

   -3    4    0
    1    1    0.25162318E-11  0.12359075E-11  0.55084902E-11  0.20865026E-11 -0.18097833E-10  0.36272010E-10

   -2   -5   -4
    1    1   -0.25828276E-10 -0.67682569E-11 -0.74694781E-10 -0.73424842E-10  0.95912572E-11  0.17951582E-10

   -2   -4   -5
    1    1   -0.17281942E-11  0.51337506E-13  0.75900597E-10  0.59562363E-10  0.22480690E-12  0.14336037E-10

   -2   -4   -4
    1    1    0.73582719E-11  0.34213948E-10 -0.20777126E-10 -0.30403689E-10 -0.57544233E-10 -0.30619448E-10

   -2   -4   -3
    1    1    0.10018948E-10  0.53631687E-11  0.74029183E-10  0.29734961E-10 -0.23224804E-10 -0.19992936E-10

   -2   -3   -6
    1    1   -0.96373082E-12 -0.82249427E-11 -0.30361702E-10 -0.45285010E-11 -0.99240180E-11  0.25286814E-10

   -2   -3   -5
    1    1   -0.15423185E-10 -0.76790588E-11 -0.43601044E-10 -0.19827565E-10  0.52327832E-11 -0.63021125E-10

   -2   -3   -4
    1    1   -0.13104416E-10 -0.25427250E-10 -0.57385619E-10 -0.31325246E-11  0.53492441E-10  0.23246814E-10

   -2   -3   -3
    1    1   -0.11857679E-10 -0.39741757E-10  0.24288491E-10 -0.73416580E-10  0.12155733E-10 -0.14662196E-10

   -2   -3   -2
    1    1    0.10415432E-10 -0.63331511E-12 -0.45348050E-10 -0.24622238E-10  0.22278127E-10  0.34828980E-11

   -2   -2   -6
    1    1    0.10121105E-10 -0.22438406E-10 -0.22526616E-10 -0.10823147E-13  0.21112844E-10 -0.31032086E-10

   -2   -2   -5
    1    1    0.40155376E-11  0.40095914E-10  0.14307456E-10 -0.25814765E-10 -0.18611033E-11 -0.45651868E-10

   -2   -2   -4
    1    1    0.66171113E-10 -0.11747507E-10  0.26698423E-10  0.25938656E-10 -0.11736755E-10  0.21928432E-11

   -2   -2   -3
    1    1    0.26129606E-10  0.46205157E-10  0.54396534E-10 -0.64734303E-10 -0.72986444E-10 -0.17335673E-10

   -2   -2   -2
    1    1    0.26706764E-11 -0.24847434E-10 -0.22395409E-10  0.12725436E-09  0.38867751E-10  0.27041526E-10

   -2   -2   -1
    1    1    0.75471841E-11 -0.12681172E-10 -0.20584971E-10 -0.32096946E-10 -0.13200250E-10  0.13822333E-10

   -2   -2    0
    1    1   -0.32694267E-10  0.27222932E-10  0.37782271E-10 -0.25179672E-12 -0.39846039E-11  0.67647429E-11

   -2   -1   -6
    1    1    0.54818432E-10  0.13129136E-10 -0.30144638E-10  0.57834987E-12  0.18239316E-10 -0.29131265E-11

   -2   -1   -5
    1    1   -0.22285577E-10  0.24699920E-10  0.64857884E-11 -0.43344514E-11 -0.26744318E-10  0.34451714E-10

   -2   -1   -4
    1    1   -0.16459772E-10 -0.31484079E-10 -0.20907542E-10  0.20881722E-10  0.44525987E-11 -0.18660445E-10

   -2   -1   -3
    1    1   -0.81692359E-10  0.35370769E-10 -0.22159864E-11 -0.48842733E-10  0.11281510E-11  0.85875532E-11

   -2   -1   -2
    1    1   -0.43906841E-10 -0.76870910E-10  0.30705074E-10  0.51288607E-10  0.91281008E-10  0.27693001E-11

   -2   -1   -1
    1    1    0.15575365E-11  0.64222687E-10 -0.22898054E-10 -0.60365781E-10  0.57968699E-12  0.23863304E-10

   -2   -1    0
    1    1    0.62400529E-11 -0.40158714E-10  0.83441134E-10  0.81867328E-10  0.21290291E-10 -0.15665562E-10

   -2    0   -5
    1    1   -0.53843568E-10 -0.52180884E-10  0.26459480E-10 -0.67034636E-11 -0.56528218E-11  0.48400351E-11

   -2    0   -4
    1    1    0.22812476E-10 -0.46605051E-10 -0.17065594E-10 -0.61474716E-11  0.18579938E-10 -0.32946076E-10

   -2    0   -3
    1    1    0.67839162E-10 -0.98116754E-11  0.39060325E-10 -0.17701550E-11  0.47236302E-11  0.25569737E-10

   -2    0   -2
    1    1    0.24155310E-10 -0.43658455E-10  0.25312463E-10  0.28554732E-10 -0.33686551E-10 -0.37108780E-10

   -2    0   -1
    1    1    0.64204713E-12  0.50492112E-10  0.50073527E-10 -0.54698739E-10 -0.25949308E-10 -0.56613017E-11

   -2    0    0
    1    1   -0.36699545E-10 -0.29345004E-10  0.36731159E-10  0.48247566E-10  0.20667756E-11 -0.31714641E-10

   -2    0    1
    1    1   -0.58711285E-11  0.44951060E-10 -0.75454842E-10 -0.10609432E-09 -0.12033228E-10  0.20221390E-10

   -2    1   -4
    1    1    0.34195988E-10  0.48606847E-10 -0.20463898E-10  0.33099191E-10 -0.28306733E-11 -0.33620451E-11

   -2    1   -3
    1    1   -0.39501864E-10  0.76740962E-10  0.52015559E-11  0.16520877E-10  0.11397606E-10 -0.37315842E-10

   -2    1   -2
    1    1   -0.78560534E-10 -0.15376052E-10 -0.20132216E-10  0.12228544E-10 -0.10272935E-10 -0.25803877E-10

   -2    1   -1
    1    1   -0.56032867E-10  0.36382985E-11  0.75343930E-11 -0.27817443E-10  0.37081961E-10  0.31524930E-10

   -2    1    0
    1    1   -0.41431760E-11 -0.17564787E-11  0.30657376E-10  0.21723840E-10  0.58914887E-11 -0.28892840E-11

   -2    1    1
    1    1    0.44750766E-10  0.45355103E-10  0.52868975E-11 -0.43022468E-12 -0.36068552E-10  0.40213876E-10

   -2    1    2
    1    1    0.25580230E-10 -0.15439799E-10  0.88248865E-10  0.69552806E-10  0.16482356E-10 -0.14386284E-10

   -2    2   -3
    1    1   -0.41008722E-10 -0.27838265E-10 -0.97776815E-11 -0.72131002E-11  0.92659505E-11  0.10057881E-10

   -2    2   -2
    1    1   -0.14530318E-10 -0.57422430E-10 -0.36530603E-11  0.48779251E-11 -0.45447231E-10  0.64938390E-10

   -2    2   -1
    1    1    0.13709034E-10  0.39780023E-11  0.24355589E-10 -0.26318066E-10 -0.13400650E-10 -0.50413297E-10

   -2    2    0
    1    1   -0.11208871E-10  0.20388915E-10 -0.47845636E-11 -0.47423552E-12 -0.57941112E-10 -0.21233556E-11

   -2    2    1
    1    1    0.37965925E-11  0.10114241E-10 -0.43115226E-10 -0.24410397E-10 -0.68833029E-11  0.20175693E-10

   -2    2    2
    1    1   -0.15350105E-10 -0.39487356E-10  0.17962837E-10  0.30205036E-10  0.35999995E-10  0.18323509E-10

   -2    2    3
    1    1   -0.25828278E-10 -0.67682537E-11 -0.74694785E-10 -0.73424847E-10  0.95912537E-11  0.17951575E-10

   -2    3   -2
    1    1    0.46959687E-10  0.22413622E-10 -0.52951304E-11  0.22440902E-10 -0.22899710E-11 -0.12068072E-10

   -2    3   -1
    1    1    0.53394878E-11  0.20059596E-10 -0.55594170E-11  0.25265922E-10  0.24935928E-10 -0.38337202E-10

   -2    3    0
    1    1   -0.10418315E-11 -0.41167100E-11  0.79783788E-11  0.24745060E-10  0.11283570E-11  0.10576156E-11

   -2    3    1
    1    1    0.61128852E-11 -0.13040042E-10  0.30803337E-10  0.32597759E-11 -0.11151938E-10 -0.63581535E-11

   -2    3    2
    1    1   -0.17281964E-11  0.51332162E-13  0.75900595E-10  0.59562367E-10  0.22480945E-12  0.14336035E-10

   -2    4   -1
    1    1    0.78005020E-11 -0.46264744E-10 -0.79066729E-11 -0.57190122E-11 -0.95262066E-11  0.13041653E-10

   -2    4    0
    1    1    0.68983992E-11  0.28438140E-11  0.15862506E-10 -0.10570346E-10 -0.32968173E-10  0.55204582E-11

   -2    4    1
    1    1   -0.96373066E-12 -0.82249435E-11 -0.30361702E-10 -0.45284972E-11 -0.99240226E-11  0.25286814E-10

   -1   -5   -3
    1    1    0.92467235E-11 -0.13311003E-10  0.34198883E-10  0.60473845E-10  0.18340115E-10  0.32420153E-11

   -1   -4   -4
    1    1    0.52850710E-11 -0.15828782E-11 -0.51318168E-10 -0.32002587E-10 -0.31468699E-10  0.20520241E-10

   -1   -4   -3
    1    1   -0.13116854E-10 -0.29981931E-10 -0.25152156E-10 -0.42059835E-12  0.34620424E-11 -0.22330964E-10

   -1   -4   -2
    1    1   -0.19795563E-10 -0.28804589E-11 -0.87820697E-10 -0.57873415E-10 -0.13755452E-10  0.66350634E-11

   -1   -3   -5
    1    1   -0.14740208E-11  0.90006906E-11  0.32191967E-10 -0.69788428E-10 -0.15691430E-10  0.23562575E-10

   -1   -3   -4
    1    1    0.35484004E-11 -0.43894449E-11 -0.25108811E-10 -0.16606852E-10  0.34622579E-10 -0.23744961E-12

   -1   -3   -3
    1    1    0.23905857E-10  0.25546617E-10  0.71199633E-10 -0.42609813E-10  0.58429843E-10 -0.22799765E-10

   -1   -3   -2
    1    1    0.31038350E-10  0.96962352E-11 -0.14730519E-10  0.75165184E-10 -0.15962799E-10  0.48583025E-10

   -1   -3   -1
    1    1    0.29128979E-10  0.93275516E-11  0.32723581E-10  0.63215764E-10 -0.45749385E-11 -0.16790136E-10

   -1   -2   -6
    1    1   -0.20785607E-11  0.26145817E-11 -0.45357652E-10 -0.27383266E-10 -0.66713541E-11 -0.19899190E-10

   -1   -2   -5
    1    1    0.89700585E-11 -0.48939131E-12  0.28262668E-10 -0.10237235E-11  0.31126620E-10  0.13062496E-11

   -1   -2   -4
    1    1   -0.18543212E-10 -0.14231183E-10 -0.70836542E-10  0.11094622E-10 -0.10192923E-10 -0.23359040E-10

   -1   -2   -3
    1    1   -0.30128584E-10  0.18017871E-10 -0.91948401E-10 -0.27870953E-10  0.57165861E-10  0.45745758E-10

   -1   -2   -2
    1    1   -0.80969275E-10 -0.79888654E-10 -0.73942536E-10  0.61759613E-10 -0.33632490E-10  0.41524803E-10

   -1   -2   -1
    1    1   -0.86864392E-11 -0.75502133E-11  0.14939717E-10 -0.15378489E-09 -0.19848060E-10 -0.41270336E-10

   -1   -2    0
    1    1   -0.51177020E-10  0.13312962E-10 -0.67178551E-11  0.46019728E-10 -0.35116546E-11  0.73517926E-12

   -1   -1   -5
    1    1   -0.23120603E-10 -0.52683118E-11  0.49585681E-10  0.58608061E-10 -0.14137015E-11  0.18511462E-10

   -1   -1   -4
    1    1    0.10998857E-10 -0.93595233E-11 -0.40100247E-10 -0.35840767E-10 -0.73820379E-11 -0.23385648E-10

   -1   -1   -3
    1    1    0.17087782E-10 -0.55261244E-10  0.62040640E-10 -0.40779771E-11  0.12683063E-10  0.38314014E-11

   -1   -1   -2
    1    1    0.27121296E-10 -0.82318507E-11  0.66374473E-10  0.91449750E-10  0.85629240E-10  0.10337964E-11

   -1   -1   -1
    1    1    0.88924073E-10  0.58855163E-10  0.16018881E-09 -0.14639964E-10  0.17725719E-10 -0.26636746E-10

   -1   -1    0
    1    1   -0.18966191E-10 -0.17772203E-10 -0.24535267E-10  0.92843314E-10  0.38364172E-10  0.99367370E-11

   -1   -1    1
    1    1    0.23812448E-10 -0.17509999E-12 -0.34109886E-10 -0.85614426E-10 -0.37809119E-12 -0.32906452E-10

   -1    0   -4
    1    1    0.42952681E-10  0.29776971E-10 -0.53702293E-11 -0.77444546E-12 -0.10643156E-10 -0.36198478E-11

   -1    0   -3
    1    1   -0.67223089E-10  0.57221415E-10  0.18625449E-10 -0.91999435E-11 -0.11209311E-10  0.17359268E-10

   -1    0   -2
    1    1   -0.16330367E-10  0.49295770E-10 -0.89379719E-10  0.10261585E-10  0.15677345E-10  0.39947305E-10

   -1    0   -1
    1    1   -0.11785263E-09 -0.28345237E-10 -0.54018153E-10 -0.47751985E-10 -0.47386401E-10 -0.16074272E-10

   -1    0    0
    1    1   -0.17514592E-10 -0.54916034E-11 -0.82546360E-10 -0.15139471E-10 -0.10286005E-10  0.34872269E-10

   -1    0    1
    1    1    0.11543732E-10  0.29427703E-10  0.11550340E-10 -0.79202282E-10 -0.59183850E-10 -0.58805302E-12

   -1    0    2
    1    1    0.14871689E-10 -0.28308157E-10  0.18347279E-10  0.12227464E-09  0.27873026E-10  0.12977385E-10

   -1    1   -3
    1    1    0.11159873E-10 -0.65512282E-10  0.64528614E-10  0.17692567E-10  0.32323171E-10  0.17026508E-10

   -1    1   -2
    1    1    0.61060461E-10 -0.10490199E-09 -0.35209452E-11 -0.14064305E-10 -0.43173157E-10 -0.21237626E-10

   -1    1   -1
    1    1    0.14616253E-10  0.12763926E-10  0.88283681E-10 -0.68966429E-10 -0.59342621E-11 -0.10930641E-10

   -1    1    0
    1    1    0.39605097E-10  0.65156231E-10 -0.59190409E-10  0.23681849E-10  0.87453888E-10 -0.10425036E-10

   -1    1    1
    1    1   -0.90490952E-11 -0.90715061E-11  0.53889994E-10 -0.21106309E-10 -0.27475881E-10 -0.32568010E-10

   -1    1    2
    1    1    0.12272466E-10 -0.25110948E-10 -0.42872685E-10  0.48380516E-10  0.34212491E-10  0.16114472E-10

   -1    1    3
    1    1   -0.14593695E-11  0.32639978E-10 -0.23216511E-10 -0.59067581E-10 -0.40679078E-10 -0.11994197E-10

   -1    2   -2
    1    1    0.35971453E-11  0.70508642E-10 -0.19101631E-10 -0.42058260E-11 -0.83387721E-11 -0.32410270E-10

   -1    2   -1
    1    1   -0.11698631E-10  0.11971356E-10 -0.20277670E-11  0.18256580E-10  0.26794856E-10  0.13030953E-10

   -1    2    0
    1    1   -0.17537912E-10  0.40812940E-11 -0.44431543E-10  0.40573318E-10  0.42520021E-10  0.43782198E-10

   -1    2    1
    1    1   -0.53174135E-11 -0.40154150E-10 -0.10077153E-09 -0.10124870E-10  0.62840750E-10 -0.61091785E-11

   -1    2    2
    1    1    0.15210557E-10 -0.16167522E-11  0.32715985E-10  0.45749697E-10  0.27585340E-10  0.46569122E-11

   -1    2    3
    1    1   -0.38636507E-11  0.34035439E-10  0.55114728E-10 -0.31343682E-10  0.16223636E-10 -0.21501057E-10

   -1    2    4
    1    1    0.92467207E-11 -0.13311004E-10  0.34198880E-10  0.60473849E-10  0.18340108E-10  0.32420123E-11

   -1    3   -1
    1    1    0.28216453E-11 -0.22041835E-10 -0.13110893E-10  0.43059154E-11 -0.50199948E-11  0.17537501E-10

   -1    3    0
    1    1    0.40796789E-12 -0.72863411E-11 -0.32076811E-10 -0.28697800E-10 -0.56846444E-10 -0.33134825E-10

   -1    3    1
    1    1    0.16556868E-10 -0.32346110E-10 -0.15557043E-10 -0.17867283E-10  0.21543159E-10 -0.27880128E-10

   -1    3    2
    1    1   -0.34007052E-11  0.46923845E-11 -0.64951253E-12 -0.15081406E-10 -0.34493542E-11  0.17102166E-10

   -1    3    3
    1    1    0.52850760E-11 -0.15828771E-11 -0.51318163E-10 -0.32002588E-10 -0.31468700E-10  0.20520238E-10

   -1    4    0
    1    1   -0.68106123E-11  0.93989256E-11  0.60720731E-10  0.27229346E-10  0.16496420E-10  0.14068982E-10

   -1    4    1
    1    1   -0.56646255E-11  0.38590004E-11  0.39548338E-11  0.43801653E-10  0.83739919E-11  0.17480956E-10

   -1    4    2
    1    1   -0.14740198E-11  0.90006893E-11  0.32191964E-10 -0.69788428E-10 -0.15691428E-10  0.23562573E-10

   -1    5    1
    1    1   -0.20785586E-11  0.26145720E-11 -0.45357653E-10 -0.27383275E-10 -0.66713481E-11 -0.19899194E-10

    0   -5   -2
    1    1    0.94054100E-11  0.62158346E-11  0.36433462E-10 -0.51022778E-10 -0.12687926E-10 -0.36791587E-11

    0   -4   -3
    1    1    0.40177885E-11  0.32113367E-11  0.39105710E-10 -0.54141425E-10 -0.12748503E-10 -0.10024645E-09

    0   -4   -2
    1    1   -0.10787661E-10  0.11070584E-10 -0.14307192E-10  0.49465723E-10 -0.12260882E-10  0.35892445E-10

    0   -4   -1
    1    1    0.12104897E-10 -0.23507953E-10 -0.16641672E-11  0.28269141E-10  0.10801538E-10  0.15761166E-10

    0   -3   -4
    1    1    0.40177893E-11 -0.32113411E-11  0.39105707E-10  0.54141427E-10 -0.12748504E-10  0.10024645E-09

    0   -3   -3
    1    1    0.14288242E-10  0.11047303E-10 -0.12166087E-09 -0.25290149E-10 -0.69873025E-10 -0.44025495E-10

    0   -3   -2
    1    1   -0.20310922E-11 -0.30411363E-10  0.38637557E-10  0.29640187E-10 -0.10802502E-10  0.11461491E-10

    0   -3   -1
    1    1   -0.17305150E-10 -0.80062555E-11  0.32801850E-10 -0.60688095E-10  0.24388540E-10 -0.37153102E-10

    0   -3    0
    1    1   -0.73606786E-10 -0.95078650E-11  0.50654463E-11 -0.27556065E-10  0.10488472E-10  0.24597260E-11

    0   -2   -5
    1    1    0.94054085E-11 -0.62158392E-11  0.36433454E-10  0.51022774E-10 -0.12687930E-10  0.36791511E-11

    0   -2   -4
    1    1   -0.14605937E-11  0.25371643E-10 -0.51406074E-10 -0.25957193E-10  0.19381936E-10 -0.88819166E-11

    0   -2   -3
    1    1    0.12513472E-10  0.76686761E-12  0.41224321E-10  0.79759554E-10  0.47654926E-12 -0.27642860E-10

    0   -2   -2
    1    1    0.39763491E-10 -0.29427796E-10  0.45124931E-10 -0.25451267E-10 -0.50993481E-10 -0.21652575E-10

    0   -2   -1
    1    1   -0.34451742E-11  0.34601744E-10  0.75318841E-10  0.19255713E-10 -0.89133227E-11  0.19730389E-10

    0   -2    0
    1    1    0.73926384E-10 -0.82184167E-12 -0.87054450E-11  0.92463653E-10  0.50741283E-10  0.60861073E-10

    0   -2    1
    1    1    0.44654235E-10  0.59746762E-10  0.10816959E-10 -0.29865785E-10 -0.62630669E-11 -0.84479758E-11

    0   -1   -4
    1    1   -0.13322164E-11  0.10460544E-10 -0.42220648E-10 -0.81041912E-10  0.17092613E-11 -0.20545827E-10

    0   -1   -3
    1    1   -0.12387917E-10 -0.17111870E-10  0.71327019E-10  0.50829680E-10 -0.29034139E-10  0.45057589E-10

    0   -1   -2
    1    1   -0.54508261E-10  0.27827666E-10 -0.78952014E-10 -0.19485734E-10 -0.27278872E-11 -0.25076251E-10

    0   -1   -1
    1    1    0.11462955E-10  0.64188678E-10 -0.18820741E-09  0.50919248E-10 -0.85317865E-10  0.71490501E-11

    0   -1    0
    1    1   -0.52765114E-10  0.12269016E-10 -0.13478358E-09 -0.11236950E-09 -0.26097125E-10  0.44269663E-11

    0   -1    1
    1    1   -0.45372541E-10 -0.11920189E-10  0.34751406E-10 -0.46550986E-10  0.35590135E-10 -0.70156410E-10

    0   -1    2
    1    1   -0.10970694E-10 -0.38809997E-10 -0.33793874E-10  0.69497745E-10  0.22259183E-11  0.33484506E-10

    0    0   -3
    1    1    0.86199124E-11 -0.30888950E-10  0.19939342E-10  0.69624946E-10 -0.71149727E-11  0.18573590E-10

    0    0   -2
    1    1    0.46059083E-10 -0.51211621E-11 -0.64185059E-10 -0.59520409E-11 -0.45819940E-11 -0.23111699E-10

    0    0   -1
    1    1    0.54561752E-10  0.84727206E-11  0.15735578E-09 -0.68399375E-10  0.31321710E-10  0.19262234E-10

    0    0    0
    1    1   -0.42886571E-10  0.00000000E+00 -0.13276284E-09  0.00000000E+00  0.36964052E-10  0.00000000E+00

    0    0    1
    1    1    0.54561752E-10 -0.84727206E-11  0.15735578E-09  0.68399375E-10  0.31321710E-10 -0.19262234E-10

    0    0    2
    1    1    0.46059083E-10  0.51211621E-11 -0.64185059E-10  0.59520409E-11 -0.45819940E-11  0.23111699E-10

    0    0    3
    1    1    0.86199124E-11  0.30888950E-10  0.19939342E-10 -0.69624946E-10 -0.71149727E-11 -0.18573590E-10

    0    1   -2
    1    1   -0.10970694E-10  0.38809997E-10 -0.33793874E-10 -0.69497745E-10  0.22259183E-11 -0.33484506E-10

    0    1   -1
    1    1   -0.45372541E-10  0.11920189E-10  0.34751406E-10  0.46550986E-10  0.35590135E-10  0.70156410E-10

    0    1    0
    1    1   -0.52765114E-10 -0.12269016E-10 -0.13478358E-09  0.11236950E-09 -0.26097125E-10 -0.44269663E-11

    0    1    1
    1    1    0.11462955E-10 -0.64188678E-10 -0.18820741E-09 -0.50919248E-10 -0.85317865E-10 -0.71490501E-11

    0    1    2
    1    1   -0.54508261E-10 -0.27827666E-10 -0.78952014E-10  0.19485734E-10 -0.27278872E-11  0.25076251E-10

    0    1    3
    1    1   -0.12387917E-10  0.17111870E-10  0.71327019E-10 -0.50829680E-10 -0.29034139E-10 -0.45057589E-10

    0    1    4
    1    1   -0.13322164E-11 -0.10460544E-10 -0.42220648E-10  0.81041912E-10  0.17092613E-11  0.20545827E-10

    0    2   -1
    1    1    0.44654235E-10 -0.59746762E-10  0.10816959E-10  0.29865785E-10 -0.62630669E-11  0.84479758E-11

    0    2    0
    1    1    0.73926384E-10  0.82184167E-12 -0.87054450E-11 -0.92463653E-10  0.50741283E-10 -0.60861073E-10

    0    2    1
    1    1   -0.34451742E-11 -0.34601744E-10  0.75318841E-10 -0.19255713E-10 -0.89133227E-11 -0.19730389E-10

    0    2    2
    1    1    0.39763491E-10  0.29427796E-10  0.45124931E-10  0.25451267E-10 -0.50993481E-10  0.21652575E-10

    0    2    3
    1    1    0.12513472E-10 -0.76686761E-12  0.41224321E-10 -0.79759554E-10  0.47654926E-12  0.27642860E-10

    0    2    4
    1    1   -0.14605937E-11 -0.25371643E-10 -0.51406074E-10  0.25957193E-10  0.19381936E-10  0.88819166E-11

    0    2    5
    1    1    0.94054085E-11  0.62158392E-11  0.36433454E-10 -0.51022774E-10 -0.12687930E-10 -0.36791511E-11

    0    3    0
    1    1   -0.73606786E-10  0.95078650E-11  0.50654463E-11  0.27556065E-10  0.10488472E-10 -0.24597260E-11

    0    3    1
    1    1   -0.17305150E-10  0.80062555E-11  0.32801850E-10  0.60688095E-10  0.24388540E-10  0.37153102E-10

    0    3    2
    1    1   -0.20310922E-11  0.30411363E-10  0.38637557E-10 -0.29640187E-10 -0.10802502E-10 -0.11461491E-10

    0    3    3
    1    1    0.14288242E-10 -0.11047303E-10 -0.12166087E-09  0.25290149E-10 -0.69873025E-10  0.44025495E-10

    0    3    4
    1    1    0.40177893E-11  0.32113411E-11  0.39105707E-10 -0.54141427E-10 -0.12748504E-10 -0.10024645E-09

    0    4    1
    1    1    0.12104897E-10  0.23507953E-10 -0.16641672E-11 -0.28269141E-10  0.10801538E-10 -0.15761166E-10

    0    4    2
    1    1   -0.10787661E-10 -0.11070584E-10 -0.14307192E-10 -0.49465723E-10 -0.12260882E-10 -0.35892445E-10

    0    4    3
    1    1    0.40177885E-11 -0.32113367E-11  0.39105710E-10  0.54141425E-10 -0.12748503E-10  0.10024645E-09

    0    5    2
    1    1    0.94054100E-11 -0.62158346E-11  0.36433462E-10  0.51022778E-10 -0.12687926E-10  0.36791587E-11

    1   -5   -1
    1    1   -0.20785586E-11 -0.26145720E-11 -0.45357653E-10  0.27383275E-10 -0.66713481E-11  0.19899194E-10

    1   -4   -2
    1    1   -0.14740198E-11 -0.90006893E-11  0.32191964E-10  0.69788428E-10 -0.15691428E-10 -0.23562573E-10

    1   -4   -1
    1    1   -0.56646255E-11 -0.38590004E-11  0.39548338E-11 -0.43801653E-10  0.83739919E-11 -0.17480956E-10

    1   -4    0
    1    1   -0.68106123E-11 -0.93989256E-11  0.60720731E-10 -0.27229346E-10  0.16496420E-10 -0.14068982E-10

    1   -3   -3
    1    1    0.52850760E-11  0.15828771E-11 -0.51318163E-10  0.32002588E-10 -0.31468700E-10 -0.20520238E-10

    1   -3   -2
    1    1   -0.34007052E-11 -0.46923845E-11 -0.64951253E-12  0.15081406E-10 -0.34493542E-11 -0.17102166E-10

    1   -3   -1
    1    1    0.16556868E-10  0.32346110E-10 -0.15557043E-10  0.17867283E-10  0.21543159E-10  0.27880128E-10

    1   -3    0
    1    1    0.40796789E-12  0.72863411E-11 -0.32076811E-10  0.28697800E-10 -0.56846444E-10  0.33134825E-10

    1   -3    1
    1    1    0.28216453E-11  0.22041835E-10 -0.13110893E-10 -0.43059154E-11 -0.50199948E-11 -0.17537501E-10

    1   -2   -4
    1    1    0.92467207E-11  0.13311004E-10  0.34198880E-10 -0.60473849E-10  0.18340108E-10 -0.32420123E-11

    1   -2   -3
    1    1   -0.38636507E-11 -0.34035439E-10  0.55114728E-10  0.31343682E-10  0.16223636E-10  0.21501057E-10

    1   -2   -2
    1    1    0.15210557E-10  0.16167522E-11  0.32715985E-10 -0.45749697E-10  0.27585340E-10 -0.46569122E-11

    1   -2   -1
    1    1   -0.53174135E-11  0.40154150E-10 -0.10077153E-09  0.10124870E-10  0.62840750E-10  0.61091785E-11

    1   -2    0
    1    1   -0.17537912E-10 -0.40812940E-11 -0.44431543E-10 -0.40573318E-10  0.42520021E-10 -0.43782198E-10

    1   -2    1
    1    1   -0.11698631E-10 -0.11971356E-10 -0.20277670E-11 -0.18256580E-10  0.26794856E-10 -0.13030953E-10

    1   -2    2
    1    1    0.35971453E-11 -0.70508642E-10 -0.19101631E-10  0.42058260E-11 -0.83387721E-11  0.32410270E-10

    1   -1   -3
    1    1   -0.14593695E-11 -0.32639978E-10 -0.23216511E-10  0.59067581E-10 -0.40679078E-10  0.11994197E-10

    1   -1   -2
    1    1    0.12272466E-10  0.25110948E-10 -0.42872685E-10 -0.48380516E-10  0.34212491E-10 -0.16114472E-10

    1   -1   -1
    1    1   -0.90490952E-11  0.90715061E-11  0.53889994E-10  0.21106309E-10 -0.27475881E-10  0.32568010E-10

    1   -1    0
    1    1    0.39605097E-10 -0.65156231E-10 -0.59190409E-10 -0.23681849E-10  0.87453888E-10  0.10425036E-10

    1   -1    1
    1    1    0.14616253E-10 -0.12763926E-10  0.88283681E-10  0.68966429E-10 -0.59342621E-11  0.10930641E-10

    1   -1    2
    1    1    0.61060461E-10  0.10490199E-09 -0.35209452E-11  0.14064305E-10 -0.43173157E-10  0.21237626E-10

    1   -1    3
    1    1    0.11159873E-10  0.65512282E-10  0.64528614E-10 -0.17692567E-10  0.32323171E-10 -0.17026508E-10

    1    0   -2
    1    1    0.14871689E-10  0.28308157E-10  0.18347279E-10 -0.12227464E-09  0.27873026E-10 -0.12977385E-10

    1    0   -1
    1    1    0.11543732E-10 -0.29427703E-10  0.11550340E-10  0.79202282E-10 -0.59183850E-10  0.58805302E-12

    1    0    0
    1    1   -0.17514592E-10  0.54916034E-11 -0.82546360E-10  0.15139471E-10 -0.10286005E-10 -0.34872269E-10

    1    0    1
    1    1   -0.11785263E-09  0.28345237E-10 -0.54018153E-10  0.47751985E-10 -0.47386401E-10  0.16074272E-10

    1    0    2
    1    1   -0.16330367E-10 -0.49295770E-10 -0.89379719E-10 -0.10261585E-10  0.15677345E-10 -0.39947305E-10

    1    0    3
    1    1   -0.67223089E-10 -0.57221415E-10  0.18625449E-10  0.91999435E-11 -0.11209311E-10 -0.17359268E-10

    1    0    4
    1    1    0.42952681E-10 -0.29776971E-10 -0.53702293E-11  0.77444546E-12 -0.10643156E-10  0.36198478E-11

    1    1   -1
    1    1    0.23812448E-10  0.17509999E-12 -0.34109886E-10  0.85614426E-10 -0.37809119E-12  0.32906452E-10

    1    1    0
    1    1   -0.18966191E-10  0.17772203E-10 -0.24535267E-10 -0.92843314E-10  0.38364172E-10 -0.99367370E-11

    1    1    1
    1    1    0.88924073E-10 -0.58855163E-10  0.16018881E-09  0.14639964E-10  0.17725719E-10  0.26636746E-10

    1    1    2
    1    1    0.27121296E-10  0.82318507E-11  0.66374473E-10 -0.91449750E-10  0.85629240E-10 -0.10337964E-11

    1    1    3
    1    1    0.17087782E-10  0.55261244E-10  0.62040640E-10  0.40779771E-11  0.12683063E-10 -0.38314014E-11

    1    1    4
    1    1    0.10998857E-10  0.93595233E-11 -0.40100247E-10  0.35840767E-10 -0.73820379E-11  0.23385648E-10

    1    1    5
    1    1   -0.23120603E-10  0.52683118E-11  0.49585681E-10 -0.58608061E-10 -0.14137015E-11 -0.18511462E-10

    1    2    0
    1    1   -0.51177020E-10 -0.13312962E-10 -0.67178551E-11 -0.46019728E-10 -0.35116546E-11 -0.73517926E-12

    1    2    1
    1    1   -0.86864392E-11  0.75502133E-11  0.14939717E-10  0.15378489E-09 -0.19848060E-10  0.41270336E-10

    1    2    2
    1    1   -0.80969275E-10  0.79888654E-10 -0.73942536E-10 -0.61759613E-10 -0.33632490E-10 -0.41524803E-10

    1    2    3
    1    1   -0.30128584E-10 -0.18017871E-10 -0.91948401E-10  0.27870953E-10  0.57165861E-10 -0.45745758E-10

    1    2    4
    1    1   -0.18543212E-10  0.14231183E-10 -0.70836542E-10 -0.11094622E-10 -0.10192923E-10  0.23359040E-10

    1    2    5
    1    1    0.89700585E-11  0.48939131E-12  0.28262668E-10  0.10237235E-11  0.31126620E-10 -0.13062496E-11

    1    2    6
    1    1   -0.20785607E-11 -0.26145817E-11 -0.45357652E-10  0.27383266E-10 -0.66713541E-11  0.19899190E-10

    1    3    1
    1    1    0.29128979E-10 -0.93275516E-11  0.32723581E-10 -0.63215764E-10 -0.45749385E-11  0.16790136E-10

    1    3    2
    1    1    0.31038350E-10 -0.96962352E-11 -0.14730519E-10 -0.75165184E-10 -0.15962799E-10 -0.48583025E-10

    1    3    3
    1    1    0.23905857E-10 -0.25546617E-10  0.71199633E-10  0.42609813E-10  0.58429843E-10  0.22799765E-10

    1    3    4
    1    1    0.35484004E-11  0.43894449E-11 -0.25108811E-10  0.16606852E-10  0.34622579E-10  0.23744961E-12

    1    3    5
    1    1   -0.14740208E-11 -0.90006906E-11  0.32191967E-10  0.69788428E-10 -0.15691430E-10 -0.23562575E-10

    1    4    2
    1    1   -0.19795563E-10  0.28804589E-11 -0.87820697E-10  0.57873415E-10 -0.13755452E-10 -0.66350634E-11

    1    4    3
    1    1   -0.13116854E-10  0.29981931E-10 -0.25152156E-10  0.42059835E-12  0.34620424E-11  0.22330964E-10

    1    4    4
    1    1    0.52850710E-11  0.15828782E-11 -0.51318168E-10  0.32002587E-10 -0.31468699E-10 -0.20520241E-10

    1    5    3
    1    1    0.92467235E-11  0.13311003E-10  0.34198883E-10 -0.60473845E-10  0.18340115E-10 -0.32420153E-11

    2   -4   -1
    1    1   -0.96373066E-12  0.82249435E-11 -0.30361702E-10  0.45284972E-11 -0.99240226E-11 -0.25286814E-10

    2   -4    0
    1    1    0.68983992E-11 -0.28438140E-11  0.15862506E-10  0.10570346E-10 -0.32968173E-10 -0.55204582E-11

    2   -4    1
    1    1    0.78005020E-11  0.46264744E-10 -0.79066729E-11  0.57190122E-11 -0.95262066E-11 -0.13041653E-10

    2   -3   -2
    1    1   -0.17281964E-11 -0.51332162E-13  0.75900595E-10 -0.59562367E-10  0.22480945E-12 -0.14336035E-10

    2   -3   -1
    1    1    0.61128852E-11  0.13040042E-10  0.30803337E-10 -0.32597759E-11 -0.11151938E-10  0.63581535E-11

    2   -3    0
    1    1   -0.10418315E-11  0.41167100E-11  0.79783788E-11 -0.24745060E-10  0.11283570E-11 -0.10576156E-11

    2   -3    1
    1    1    0.53394878E-11 -0.20059596E-10 -0.55594170E-11 -0.25265922E-10  0.24935928E-10  0.38337202E-10

    2   -3    2
    1    1    0.46959687E-10 -0.22413622E-10 -0.52951304E-11 -0.22440902E-10 -0.22899710E-11  0.12068072E-10

    2   -2   -3
    1    1   -0.25828278E-10  0.67682537E-11 -0.74694785E-10  0.73424847E-10  0.95912537E-11 -0.17951575E-10

    2   -2   -2
    1    1   -0.15350105E-10  0.39487356E-10  0.17962837E-10 -0.30205036E-10  0.35999995E-10 -0.18323509E-10

    2   -2   -1
    1    1    0.37965925E-11 -0.10114241E-10 -0.43115226E-10  0.24410397E-10 -0.68833029E-11 -0.20175693E-10

    2   -2    0
    1    1   -0.11208871E-10 -0.20388915E-10 -0.47845636E-11  0.47423552E-12 -0.57941112E-10  0.21233556E-11

    2   -2    1
    1    1    0.13709034E-10 -0.39780023E-11  0.24355589E-10  0.26318066E-10 -0.13400650E-10  0.50413297E-10

    2   -2    2
    1    1   -0.14530318E-10  0.57422430E-10 -0.36530603E-11 -0.48779251E-11 -0.45447231E-10 -0.64938390E-10

    2   -2    3
    1    1   -0.41008722E-10  0.27838265E-10 -0.97776815E-11  0.72131002E-11  0.92659505E-11 -0.10057881E-10

    2   -1   -2
    1    1    0.25580230E-10  0.15439799E-10  0.88248865E-10 -0.69552806E-10  0.16482356E-10  0.14386284E-10

    2   -1   -1
    1    1    0.44750766E-10 -0.45355103E-10  0.52868975E-11  0.43022468E-12 -0.36068552E-10 -0.40213876E-10

    2   -1    0
    1    1   -0.41431760E-11  0.17564787E-11  0.30657376E-10 -0.21723840E-10  0.58914887E-11  0.28892840E-11

    2   -1    1
    1    1   -0.56032867E-10 -0.36382985E-11  0.75343930E-11  0.27817443E-10  0.37081961E-10 -0.31524930E-10

    2   -1    2
    1    1   -0.78560534E-10  0.15376052E-10 -0.20132216E-10 -0.12228544E-10 -0.10272935E-10  0.25803877E-10

    2   -1    3
    1    1   -0.39501864E-10 -0.76740962E-10  0.52015559E-11 -0.16520877E-10  0.11397606E-10  0.37315842E-10

    2   -1    4
    1    1    0.34195988E-10 -0.48606847E-10 -0.20463898E-10 -0.33099191E-10 -0.28306733E-11  0.33620451E-11

    2    0   -1
    1    1   -0.58711285E-11 -0.44951060E-10 -0.75454842E-10  0.10609432E-09 -0.12033228E-10 -0.20221390E-10

    2    0    0
    1    1   -0.36699545E-10  0.29345004E-10  0.36731159E-10 -0.48247566E-10  0.20667756E-11  0.31714641E-10

    2    0    1
    1    1    0.64204713E-12 -0.50492112E-10  0.50073527E-10  0.54698739E-10 -0.25949308E-10  0.56613017E-11

    2    0    2
    1    1    0.24155310E-10  0.43658455E-10  0.25312463E-10 -0.28554732E-10 -0.33686551E-10  0.37108780E-10

    2    0    3
    1    1    0.67839162E-10  0.98116754E-11  0.39060325E-10  0.17701550E-11  0.47236302E-11 -0.25569737E-10

    2    0    4
    1    1    0.22812476E-10  0.46605051E-10 -0.17065594E-10  0.61474716E-11  0.18579938E-10  0.32946076E-10

    2    0    5
    1    1   -0.53843568E-10  0.52180884E-10  0.26459480E-10  0.67034636E-11 -0.56528218E-11 -0.48400351E-11

    2    1    0
    1    1    0.62400529E-11  0.40158714E-10  0.83441134E-10 -0.81867328E-10  0.21290291E-10  0.15665562E-10

    2    1    1
    1    1    0.15575365E-11 -0.64222687E-10 -0.22898054E-10  0.60365781E-10  0.57968699E-12 -0.23863304E-10

    2    1    2
    1    1   -0.43906841E-10  0.76870910E-10  0.30705074E-10 -0.51288607E-10  0.91281008E-10 -0.27693001E-11

    2    1    3
    1    1   -0.81692359E-10 -0.35370769E-10 -0.22159864E-11  0.48842733E-10  0.11281510E-11 -0.85875532E-11

    2    1    4
    1    1   -0.16459772E-10  0.31484079E-10 -0.20907542E-10 -0.20881722E-10  0.44525987E-11  0.18660445E-10

    2    1    5
    1    1   -0.22285577E-10 -0.24699920E-10  0.64857884E-11  0.43344514E-11 -0.26744318E-10 -0.34451714E-10

    2    1    6
    1    1    0.54818432E-10 -0.13129136E-10 -0.30144638E-10 -0.57834987E-12  0.18239316E-10  0.29131265E-11

    2    2    0
    1    1   -0.32694267E-10 -0.27222932E-10  0.37782271E-10  0.25179672E-12 -0.39846039E-11 -0.67647429E-11

    2    2    1
    1    1    0.75471841E-11  0.12681172E-10 -0.20584971E-10  0.32096946E-10 -0.13200250E-10 -0.13822333E-10

    2    2    2
    1    1    0.26706764E-11  0.24847434E-10 -0.22395409E-10 -0.12725436E-09  0.38867751E-10 -0.27041526E-10

    2    2    3
    1    1    0.26129606E-10 -0.46205157E-10  0.54396534E-10  0.64734303E-10 -0.72986444E-10  0.17335673E-10

    2    2    4
    1    1    0.66171113E-10  0.11747507E-10  0.26698423E-10 -0.25938656E-10 -0.11736755E-10 -0.21928432E-11

    2    2    5
    1    1    0.40155376E-11 -0.40095914E-10  0.14307456E-10  0.25814765E-10 -0.18611033E-11  0.45651868E-10

    2    2    6
    1    1    0.10121105E-10  0.22438406E-10 -0.22526616E-10  0.10823147E-13  0.21112844E-10  0.31032086E-10

    2    3    2
    1    1    0.10415432E-10  0.63331511E-12 -0.45348050E-10  0.24622238E-10  0.22278127E-10 -0.34828980E-11

    2    3    3
    1    1   -0.11857679E-10  0.39741757E-10  0.24288491E-10  0.73416580E-10  0.12155733E-10  0.14662196E-10

    2    3    4
    1    1   -0.13104416E-10  0.25427250E-10 -0.57385619E-10  0.31325246E-11  0.53492441E-10 -0.23246814E-10

    2    3    5
    1    1   -0.15423185E-10  0.76790588E-11 -0.43601044E-10  0.19827565E-10  0.52327832E-11  0.63021125E-10

    2    3    6
    1    1   -0.96373082E-12  0.82249427E-11 -0.30361702E-10  0.45285010E-11 -0.99240180E-11 -0.25286814E-10

    2    4    3
    1    1    0.10018948E-10 -0.53631687E-11  0.74029183E-10 -0.29734961E-10 -0.23224804E-10  0.19992936E-10

    2    4    4
    1    1    0.73582719E-11 -0.34213948E-10 -0.20777126E-10  0.30403689E-10 -0.57544233E-10  0.30619448E-10

    2    4    5
    1    1   -0.17281942E-11 -0.51337506E-13  0.75900597E-10 -0.59562363E-10  0.22480690E-12 -0.14336037E-10

    2    5    4
    1    1   -0.25828276E-10  0.67682569E-11 -0.74694781E-10  0.73424842E-10  0.95912572E-11 -0.17951582E-10

    3   -4    0
    1    1    0.25162318E-11 -0.12359075E-11  0.55084902E-11 -0.20865026E-11 -0.18097833E-10 -0.36272010E-10

    3   -3   -1
    1    1   -0.20542976E-11  0.62671174E-11 -0.25300155E-10  0.16687562E-10  0.15012367E-10 -0.11335953E-10

    3   -3    0
    1    1   -0.11172894E-10 -0.22387024E-11 -0.97669644E-11 -0.18820744E-11 -0.37503862E-10 -0.10262507E-10

    3   -3    1
    1    1    0.96920613E-11  0.60667068E-11 -0.11299421E-11  0.60857131E-11  0.23657988E-10  0.11190211E-10

    3   -2   -2
    1    1    0.95063109E-11 -0.32822786E-11  0.32239672E-10 -0.61065831E-10 -0.21712166E-10  0.21952739E-10

    3   -2   -1
    1    1    0.38465974E-11 -0.20308373E-10 -0.31189977E-10  0.36909100E-10  0.18238671E-11 -0.89891878E-11

    3   -2    0
    1    1    0.19102304E-10 -0.14249506E-10  0.34883263E-10 -0.28216068E-10  0.26082302E-10 -0.86491483E-11

    3   -2    1
    1    1    0.32766481E-10  0.73734668E-11  0.27671778E-11  0.19653990E-11  0.94069230E-11  0.25037422E-11

    3   -2    2
    1    1    0.38142357E-11 -0.15125293E-10  0.17546853E-11 -0.38319050E-11 -0.25762271E-10 -0.34194989E-10

    3   -1   -1
    1    1    0.19356366E-10 -0.40363088E-11 -0.66746089E-10  0.92672487E-10  0.48834812E-10 -0.28118090E-10

    3   -1    0
    1    1   -0.40566443E-10  0.41945563E-10  0.36995381E-10  0.19264561E-10  0.76533218E-11  0.33092917E-10

    3   -1    1
    1    1   -0.36193002E-10 -0.32516790E-10 -0.28307331E-10  0.51916386E-11 -0.53855546E-10  0.71973973E-11

    3   -1    2
    1    1   -0.31137591E-11  0.26718137E-10 -0.29929364E-11 -0.26741391E-11 -0.34277893E-10 -0.42635404E-10

    3   -1    3
    1    1    0.13219739E-10 -0.25503695E-10  0.46878303E-11  0.21961662E-11  0.15816170E-10  0.40525775E-10

    3    0    0
    1    1   -0.16402647E-10  0.21256472E-10  0.70985465E-10 -0.88186435E-10 -0.33569581E-10  0.21970062E-10

    3    0    1
    1    1    0.74916531E-10 -0.10136167E-09 -0.95748343E-11 -0.12654239E-11 -0.43501465E-11 -0.59203950E-10

    3    0    2
    1    1   -0.13507628E-10  0.11144621E-09  0.15300845E-10 -0.25100351E-10  0.23794675E-10  0.29992718E-10

    3    0    3
    1    1   -0.66785323E-10 -0.49990209E-10  0.14767666E-11  0.40601581E-11 -0.86027326E-11 -0.20289931E-10

    3    0    4
    1    1   -0.94265580E-10  0.54006579E-10 -0.73831095E-11 -0.39926898E-11 -0.13286045E-10 -0.75923528E-12

    3    1    1
    1    1   -0.50482283E-10 -0.92519480E-11 -0.65496839E-10  0.41311165E-10  0.25756795E-10 -0.22290688E-10

    3    1    2
    1    1   -0.34002640E-10  0.13481306E-09  0.62150476E-11 -0.44068680E-10  0.46548298E-10  0.34560264E-10

    3    1    3
    1    1    0.27805082E-10 -0.39772065E-10 -0.26140705E-10  0.17818789E-10 -0.26346756E-10 -0.22968406E-10

    3    1    4
    1    1    0.44089755E-10  0.59039918E-10  0.61302300E-11  0.23042613E-11 -0.11606519E-10  0.28972912E-10

    3    1    5
    1    1    0.50850616E-10 -0.23052273E-10  0.74320953E-11  0.10309795E-10  0.93543196E-11 -0.27926985E-10

    3    2    2
    1    1    0.42914408E-10 -0.16911420E-10  0.41775776E-10 -0.47129298E-10 -0.35649207E-10  0.11193641E-11

    3    2    3
    1    1   -0.41358931E-10 -0.25681164E-10 -0.80136704E-11  0.26995919E-10 -0.41316587E-10 -0.64178132E-11

    3    2    4
    1    1   -0.58999771E-11 -0.68185888E-11 -0.17343539E-10 -0.18244195E-10 -0.26854641E-10  0.25488306E-10

    3    2    5
    1    1   -0.67156788E-10 -0.20397024E-10 -0.14243379E-10 -0.69923049E-11  0.31354749E-11 -0.52996911E-10

    3    2    6
    1    1   -0.34399088E-11 -0.20982403E-11 -0.29572344E-11 -0.11244054E-10  0.10502588E-10  0.33544374E-10

    3    3    3
    1    1   -0.29375639E-10 -0.21828257E-10  0.36132001E-11  0.16898266E-10  0.68983395E-11 -0.84395768E-12

    3    3    4
    1    1    0.35701433E-10 -0.30402215E-10 -0.19951588E-10 -0.81671765E-11  0.85692593E-11  0.73040126E-11

    3    3    5
    1    1    0.82489030E-11 -0.66023635E-11  0.35176722E-10 -0.34651293E-11 -0.15814338E-10  0.38286610E-10

    3    3    6
    1    1    0.81021422E-11  0.20975747E-11  0.13984759E-10  0.17951318E-11  0.42604626E-10 -0.22968777E-10

    3    3    7
    1    1    0.25162330E-11 -0.12359087E-11  0.55084923E-11 -0.20865008E-11 -0.18097841E-10 -0.36272007E-10

    3    4    4
    1    1    0.13780592E-10  0.21087806E-10 -0.26423532E-10 -0.93556401E-11  0.78352833E-11 -0.13981492E-10

    3    4    5
    1    1   -0.12676085E-11  0.10821580E-10  0.30095653E-10 -0.23809180E-10 -0.46242935E-10 -0.15843877E-10

    3    4    6
    1    1   -0.20542993E-11  0.62671200E-11 -0.25300154E-10  0.16687558E-10  0.15012361E-10 -0.11335947E-10

    3    5    5
    1    1    0.95063063E-11 -0.32822724E-11  0.32239668E-10 -0.61065825E-10 -0.21712168E-10  0.21952746E-10

    4   -3    0
    1    1    0.25162341E-11  0.12359086E-11  0.55084855E-11  0.20864980E-11 -0.18097843E-10  0.36272012E-10

    4   -2   -1
    1    1    0.45002647E-11 -0.27977535E-10 -0.13528853E-10  0.35883043E-10  0.17439794E-10 -0.20121149E-10

    4   -2    0
    1    1   -0.18109471E-10  0.72251093E-11  0.16484282E-10 -0.65030835E-12 -0.44082731E-11  0.19460820E-10

    4   -2    1
    1    1   -0.34399081E-11  0.20982335E-11 -0.29572294E-11  0.11244063E-10  0.10502593E-10 -0.33544369E-10

    4   -1    0
    1    1   -0.20377564E-10  0.14000402E-10  0.24786725E-10 -0.71386937E-10 -0.20223362E-10  0.27906846E-10

    4   -1    1
    1    1    0.59625997E-11 -0.38433332E-10 -0.27399448E-10 -0.57648821E-12  0.21271110E-10 -0.33494683E-10

    4   -1    2
    1    1    0.50850611E-10  0.23052283E-10  0.74320937E-11 -0.10309810E-10  0.93543159E-11  0.27926990E-10

    4    0    1
    1    1    0.29759082E-10  0.24773453E-10 -0.45071825E-10  0.49863829E-10  0.12273606E-10 -0.12417777E-10

    4    0    2
    1    1   -0.49127906E-10  0.12297053E-09  0.18572653E-10  0.13011348E-10 -0.88183973E-11  0.77307911E-10

    4    0    3
    1    1   -0.94265579E-10 -0.54006581E-10 -0.73831086E-11  0.39926975E-11 -0.13286045E-10  0.75922950E-12

    4    1    2
    1    1   -0.46074437E-10 -0.40404787E-10  0.13931448E-10 -0.36600122E-10 -0.21379227E-10  0.22769292E-10

    4    1    3
    1    1    0.55264602E-10 -0.11343104E-09 -0.55103359E-11  0.40090279E-11 -0.40935027E-10 -0.17126774E-10

    4    1    4
    1    1    0.13219734E-10  0.25503703E-10  0.46878232E-11 -0.21961756E-11  0.15816172E-10 -0.40525771E-10

    4    2    3
    1    1   -0.16090872E-10  0.13446444E-10 -0.81938097E-11  0.24987590E-10  0.18041080E-10 -0.30673717E-10

    4    2    4
    1    1   -0.83481289E-11  0.43562057E-10 -0.34536290E-11  0.29448092E-11  0.34101050E-10 -0.24671906E-10

    4    2    5
    1    1    0.38142364E-11  0.15125281E-10  0.17546873E-11  0.38319132E-11 -0.25762272E-10  0.34194995E-10

    4    3    4
    1    1    0.29619184E-10  0.22265990E-10  0.22885825E-10 -0.29343354E-10 -0.18155386E-10  0.54751953E-11

    4    3    5
    1    1    0.36239974E-11  0.20069891E-10  0.12855871E-10 -0.77139184E-11  0.41797026E-11  0.49114745E-10

    4    3    6
    1    1    0.96920626E-11 -0.60667021E-11 -0.11299433E-11 -0.60857164E-11  0.23657986E-10 -0.11190218E-10

    4    4    5
    1    1    0.59171531E-11 -0.42090072E-11 -0.18883287E-10  0.72501881E-11 -0.56993173E-11  0.13309502E-10

    4    4    6
    1    1    0.84737264E-11 -0.21464973E-10 -0.83414083E-11  0.53744839E-11  0.17718883E-10 -0.46540448E-11

    4    4    7
    1    1    0.25162330E-11  0.12359075E-11  0.55084835E-11  0.20864999E-11 -0.18097836E-10  0.36272016E-10

    4    5    6
    1    1    0.45002586E-11 -0.27977542E-10 -0.13528854E-10  0.35883037E-10  0.17439795E-10 -0.20121152E-10

    5   -1    1
    1    1    0.54818432E-10  0.13129140E-10 -0.30144647E-10  0.57834458E-12  0.18239312E-10 -0.29131182E-11

    5    0    2
    1    1   -0.53843576E-10 -0.52180878E-10  0.26459493E-10 -0.67034595E-11 -0.56528194E-11  0.48400320E-11

    5    1    3
    1    1    0.34195994E-10  0.48606851E-10 -0.20463908E-10  0.33099195E-10 -0.28306768E-11 -0.33620409E-11

    5    2    4
    1    1   -0.41008720E-10 -0.27838271E-10 -0.97776736E-11 -0.72130965E-11  0.92659504E-11  0.10057890E-10

    5    3    5
    1    1    0.46959687E-10  0.22413625E-10 -0.52951359E-11  0.22440892E-10 -0.22899732E-11 -0.12068071E-10

    5    4    6
    1    1    0.78005025E-11 -0.46264745E-10 -0.79066686E-11 -0.57190095E-11 -0.95262076E-11  0.13041654E-10
